<event>
 4    1  0.1893769E-002  0.6521629E+02  0.7818608E-02  0.1377160E+00
         -1   -1    0    0  501    0 -0.00000000000E+00  0.00000000000E+00  0.65926197566E+03  0.65926197568E+03  0.50400000000E-02 0. -1.
          1   -1    0    0    0  501  0.00000000000E+00 -0.00000000000E+00 -0.16128466886E+01  0.16128545633E+01  0.50400000000E-02 0. -1.
          2    1    1    2    0  502  0.98896815630E+01 -0.19977383493E+02  0.56999313071E+03  0.57042884807E+03  0.25500000000E-02 0.  1.
         -2    1    1    2  502    0 -0.98896815630E+01  0.19977383493E+02  0.87655998262E+02  0.90445982169E+02  0.25500000000E-02 0.  1.
<mgrwt>
<rscale>  0 0.65216289E+02</rscale>
<asrwt>0</asrwt>
<pdfrwt beam="2">  1        1 0.24813052E-03 0.65216289E+02</pdfrwt>
<pdfrwt beam="1">  1       -1 0.10142506E+00 0.65216289E+02</pdfrwt>
<totfact> 0.92161229E+04</totfact>
</mgrwt>
</event>
<event>
 4    1  0.1893769E-002  0.6682779E+02  0.7818608E-02  0.1371225E+00
         -1   -1    0    0  501    0 -0.00000000000E+00  0.00000000000E+00  0.51838356017E+01  0.51838380518E+01  0.50400000000E-02 0.  1.
          1   -1    0    0    0  501  0.00000000000E+00 -0.00000000000E+00 -0.21537879345E+03  0.21537879351E+03  0.50400000000E-02 0.  1.
          2    1    1    2    0  502 -0.17327934808E+02  0.19974370647E+02 -0.17251549292E+03  0.17453030715E+03  0.25500000000E-02 0. -1.
         -2    1    1    2  502    0  0.17327934808E+02 -0.19974370647E+02 -0.37679464925E+02  0.46032324415E+02  0.25500000000E-02 0. -1.
<mgrwt>
<rscale>  0 0.66827795E+02</rscale>
<asrwt>0</asrwt>
<pdfrwt beam="2">  1        1 0.33135192E-01 0.66827795E+02</pdfrwt>
<pdfrwt beam="1">  1       -1 0.79751353E-03 0.66827795E+02</pdfrwt>
<totfact> 0.27212747E+05</totfact>
</mgrwt>
</event>
<event>
 4    1  0.1893769E-002  0.4475746E+02  0.7818608E-02  0.1475861E+00
          1   -1    0    0    0  501  0.00000000000E+00  0.00000000000E+00  0.19168258613E+01  0.19168324873E+01  0.50400000000E-02 0.  1.
         -1   -1    0    0  501    0 -0.00000000000E+00 -0.00000000000E+00 -0.26126870638E+03  0.26126870643E+03  0.50400000000E-02 0.  1.
          2    1    1    2    0  502  0.12475322316E+02 -0.15932934716E+02 -0.73484695345E+02  0.76220027106E+02  0.25500000000E-02 0.  1.
         -2    1    1    2  502    0 -0.12475322316E+02  0.15932934716E+02 -0.18586718517E+03  0.18696551181E+03  0.25500000000E-02 0.  1.
<mgrwt>
<rscale>  0 0.44757457E+02</rscale>
<asrwt>0</asrwt>
<pdfrwt beam="1">  1        1 0.29489701E-03 0.44757457E+02</pdfrwt>
<pdfrwt beam="2">  1       -1 0.40195158E-01 0.44757457E+02</pdfrwt>
<totfact> 0.38766908E+05</totfact>
</mgrwt>
</event>
<event>
 4    1  0.1893769E-002  0.4261378E+02  0.7818608E-02  0.1489813E+00
         -1   -1    0    0  501    0 -0.00000000000E+00  0.00000000000E+00  0.26325146073E+00  0.26329970219E+00  0.50400000000E-02 0. -1.
          1   -1    0    0    0  501  0.00000000000E+00 -0.00000000000E+00 -0.17243661700E+04  0.17243661700E+04  0.50400000000E-02 0. -1.
          2    1    1    2    0  502  0.19372616447E+02 -0.63584952409E+01 -0.61173544643E+03  0.61207514666E+03  0.25500000000E-02 0. -1.
         -2    1    1    2  502    0 -0.19372616447E+02  0.63584952409E+01 -0.11123674721E+04  0.11125543231E+04  0.25500000000E-02 0. -1.
<mgrwt>
<rscale>  0 0.42613778E+02</rscale>
<asrwt>0</asrwt>
<pdfrwt beam="2">  1        1 0.26527806E+00 0.42613778E+02</pdfrwt>
<pdfrwt beam="1">  1       -1 0.40505317E-04 0.42613778E+02</pdfrwt>
<totfact> 0.67559125E+05</totfact>
</mgrwt>
</event>
<event>
 4    1  0.1893769E-002  0.7274932E+02  0.7818608E-02  0.1350986E+00
         -1   -1    0    0  501    0 -0.00000000000E+00  0.00000000000E+00  0.10600510644E+02  0.10600511842E+02  0.50400000000E-02 0.  1.
          1   -1    0    0    0  501  0.00000000000E+00 -0.00000000000E+00 -0.12481624165E+03  0.12481624175E+03  0.50400000000E-02 0.  1.
          2    1    1    2    0  502  0.29114272509E+02  0.58976491332E+01 -0.18031744432E+02  0.34750063925E+02  0.25500000000E-02 0. -1.
         -2    1    1    2  502    0 -0.29114272509E+02 -0.58976491332E+01 -0.96183986570E+02  0.10066668966E+03  0.25500000000E-02 0. -1.
<mgrwt>
<rscale>  0 0.72749323E+02</rscale>
<asrwt>0</asrwt>
<pdfrwt beam="2">  1        1 0.19202498E-01 0.72749323E+02</pdfrwt>
<pdfrwt beam="1">  1       -1 0.16308480E-02 0.72749323E+02</pdfrwt>
<totfact> 0.19829172E+05</totfact>
</mgrwt>
</event>
<event>
 4    1  0.1893769E-002  0.5040299E+02  0.7818608E-02  0.1443180E+00
         -1   -1    0    0  501    0 -0.00000000000E+00  0.00000000000E+00  0.10235646767E+01  0.10235770851E+01  0.50400000000E-02 0.  1.
          1   -1    0    0    0  501  0.00000000000E+00 -0.00000000000E+00 -0.62048981614E+03  0.62048981616E+03  0.50400000000E-02 0.  1.
          2    1    1    2    0  502 -0.13312013896E+02  0.19040679050E+02 -0.43014604632E+03  0.43077300094E+03  0.25500000000E-02 0. -1.
         -2    1    1    2  502    0  0.13312013896E+02 -0.19040679050E+02 -0.18932020515E+03  0.19074039230E+03  0.25500000000E-02 0. -1.
<mgrwt>
<rscale>  0 0.50402989E+02</rscale>
<asrwt>0</asrwt>
<pdfrwt beam="2">  1        1 0.95459672E-01 0.50402989E+02</pdfrwt>
<pdfrwt beam="1">  1       -1 0.15747294E-03 0.50402989E+02</pdfrwt>
<totfact> 0.64937268E+05</totfact>
</mgrwt>
</event>
<event>
 4    1  0.1893769E-002  0.5921543E+02  0.7818608E-02  0.1401154E+00
         -1   -1    0    0  501    0 -0.00000000000E+00  0.00000000000E+00  0.28011167672E+02  0.28011168126E+02  0.50400000000E-02 0.  1.
          1   -1    0    0    0  501  0.00000000000E+00 -0.00000000000E+00 -0.31295256691E+02  0.31295257097E+02  0.50400000000E-02 0.  1.
          2    1    1    2    0  502  0.99396303761E+01  0.24997795153E+02  0.10743474187E+02  0.28967365407E+02  0.25500000000E-02 0.  1.
         -2    1    1    2  502    0 -0.99396303761E+01 -0.24997795153E+02 -0.14027563206E+02  0.30339059816E+02  0.25500000000E-02 0.  1.
<mgrwt>
<rscale>  0 0.59215427E+02</rscale>
<asrwt>0</asrwt>
<pdfrwt beam="2">  1        1 0.48146549E-02 0.59215427E+02</pdfrwt>
<pdfrwt beam="1">  1       -1 0.43094105E-02 0.59215427E+02</pdfrwt>
<totfact> 0.28654307E+05</totfact>
</mgrwt>
</event>
<event>
 4    1  0.1893769E-002  0.7088800E+02  0.7818608E-02  0.1357099E+00
         -1   -1    0    0  501    0 -0.00000000000E+00  0.00000000000E+00  0.68899075802E+01  0.68899094236E+01  0.50400000000E-02 0.  1.
          1   -1    0    0    0  501  0.00000000000E+00 -0.00000000000E+00 -0.18233584313E+03  0.18233584320E+03  0.50400000000E-02 0.  1.
          2    1    1    2    0  502 -0.17632300045E+02 -0.10757435896E+02 -0.16461064534E+03  0.16590143157E+03  0.25500000000E-02 0. -1.
         -2    1    1    2  502    0  0.17632300045E+02  0.10757435896E+02 -0.10835290205E+02  0.23324321046E+02  0.25500000000E-02 0. -1.
<mgrwt>
<rscale>  0 0.70888004E+02</rscale>
<asrwt>0</asrwt>
<pdfrwt beam="2">  1        1 0.28051665E-01 0.70888004E+02</pdfrwt>
<pdfrwt beam="1">  1       -1 0.10599861E-02 0.70888004E+02</pdfrwt>
<totfact> 0.22649185E+05</totfact>
</mgrwt>
</event>
<event>
 4    1  0.1893769E-002  0.1286964E+03  0.7818608E-02  0.1229403E+00
         -1   -1    0    0  501    0 -0.00000000000E+00  0.00000000000E+00  0.26714496959E+02  0.26714497434E+02  0.50400000000E-02 0. -1.
          1   -1    0    0    0  501  0.00000000000E+00 -0.00000000000E+00 -0.15499794496E+03  0.15499794504E+03  0.50400000000E-02 0. -1.
          2    1    1    2    0  502  0.65998384503E+01  0.35834691374E+02  0.10744817422E+02  0.37988604625E+02  0.25500000000E-02 0. -1.
         -2    1    1    2  502    0 -0.65998384503E+01 -0.35834691374E+02 -0.13902826542E+03  0.14372383785E+03  0.25500000000E-02 0. -1.
<mgrwt>
<rscale>  0 0.12869642E+03</rscale>
<asrwt>0</asrwt>
<pdfrwt beam="2">  1        1 0.23845837E-01 0.12869642E+03</pdfrwt>
<pdfrwt beam="1">  1       -1 0.41099227E-02 0.12869642E+03</pdfrwt>
<totfact> 0.43660959E+04</totfact>
</mgrwt>
</event>
<event>
 4    1  0.1893769E-002  0.5282160E+02  0.7818608E-02  0.1430691E+00
          1   -1    0    0    0  501  0.00000000000E+00  0.00000000000E+00  0.66024050755E+03  0.66024050757E+03  0.50400000000E-02 0. -1.
         -1   -1    0    0  501    0 -0.00000000000E+00 -0.00000000000E+00 -0.10564731443E+01  0.10564851661E+01  0.50400000000E-02 0. -1.
          2    1    1    2    0  502  0.24044197962E+02  0.99784838771E+01  0.38535168659E+03  0.38623000396E+03  0.25500000000E-02 0.  1.
         -2    1    1    2  502    0 -0.24044197962E+02 -0.99784838771E+01  0.27383234782E+03  0.27506698877E+03  0.25500000000E-02 0.  1.
<mgrwt>
<rscale>  0 0.52821600E+02</rscale>
<asrwt>0</asrwt>
<pdfrwt beam="1">  1        1 0.10157552E+00 0.52821600E+02</pdfrwt>
<pdfrwt beam="2">  1       -1 0.16253517E-03 0.52821600E+02</pdfrwt>
<totfact> 0.57882331E+05</totfact>
</mgrwt>
</event>
<event>
 4    1  0.1893769E-002  0.7723473E+02  0.7818608E-02  0.1337087E+00
          1   -1    0    0    0  501  0.00000000000E+00  0.00000000000E+00  0.96806133372E+03  0.96806133374E+03  0.50400000000E-02 0. -1.
         -1   -1    0    0  501    0 -0.00000000000E+00 -0.00000000000E+00 -0.15404985114E+01  0.15405067560E+01  0.50400000000E-02 0. -1.
          2    1    1    2    0  502  0.35530881865E+02 -0.90460151874E+01  0.63548312625E+03  0.63653992625E+03  0.25500000000E-02 0. -1.
         -2    1    1    2  502    0 -0.35530881865E+02  0.90460151874E+01  0.33103770896E+03  0.33306191424E+03  0.25500000000E-02 0. -1.
<mgrwt>
<rscale>  0 0.77234734E+02</rscale>
<asrwt>0</asrwt>
<pdfrwt beam="1">  1        1 0.14893278E+00 0.77234734E+02</pdfrwt>
<pdfrwt beam="2">  1       -1 0.23699997E-03 0.77234734E+02</pdfrwt>
<totfact> 0.21188451E+05</totfact>
</mgrwt>
</event>
<event>
 4    1  0.1893769E-002  0.4968302E+02  0.7818608E-02  0.1447059E+00
         -1   -1    0    0  501    0 -0.00000000000E+00  0.00000000000E+00  0.30914219777E+01  0.30914260861E+01  0.50400000000E-02 0.  1.
          1   -1    0    0    0  501  0.00000000000E+00 -0.00000000000E+00 -0.19961694980E+03  0.19961694986E+03  0.50400000000E-02 0.  1.
          2    1    1    2    0  502 -0.87092140307E+01 -0.22072467531E+02 -0.12826041832E+03  0.13043687802E+03  0.25500000000E-02 0. -1.
         -2    1    1    2  502    0  0.87092140307E+01  0.22072467531E+02 -0.68265109498E+02  0.72271497931E+02  0.25500000000E-02 0. -1.
<mgrwt>
<rscale>  0 0.49683021E+02</rscale>
<asrwt>0</asrwt>
<pdfrwt beam="2">  1        1 0.30710290E-01 0.49683021E+02</pdfrwt>
<pdfrwt beam="1">  1       -1 0.47560386E-03 0.49683021E+02</pdfrwt>
<totfact> 0.57089038E+05</totfact>
</mgrwt>
</event>
<event>
 4    1  0.1893769E-002  0.4710727E+02  0.7818608E-02  0.1461599E+00
          1   -1    0    0    0  501  0.00000000000E+00  0.00000000000E+00  0.14155418352E+03  0.14155418361E+03  0.50400000000E-02 0. -1.
         -1   -1    0    0  501    0 -0.00000000000E+00 -0.00000000000E+00 -0.39191593352E+01  0.39191625759E+01  0.50400000000E-02 0. -1.
          2    1    1    2    0  502 -0.11904527404E+02 -0.20041190525E+02  0.79247230556E+02  0.82604422688E+02  0.25500000000E-02 0. -1.
         -2    1    1    2  502    0  0.11904527404E+02  0.20041190525E+02  0.58387793626E+02  0.62868923494E+02  0.25500000000E-02 0. -1.
<mgrwt>
<rscale>  0 0.47107267E+02</rscale>
<asrwt>0</asrwt>
<pdfrwt beam="1">  1        1 0.21777565E-01 0.47107267E+02</pdfrwt>
<pdfrwt beam="2">  1       -1 0.60294791E-03 0.47107267E+02</pdfrwt>
<totfact> 0.61640082E+05</totfact>
</mgrwt>
</event>
<event>
 4    1  0.1893769E-002  0.5630531E+02  0.7818608E-02  0.1414025E+00
          1   -1    0    0    0  501  0.00000000000E+00  0.00000000000E+00  0.35051906729E+01  0.35051942964E+01  0.50400000000E-02 0.  1.
         -1   -1    0    0  501    0 -0.00000000000E+00 -0.00000000000E+00 -0.22611369065E+03  0.22611369071E+03  0.50400000000E-02 0.  1.
          2    1    1    2    0  502 -0.12568491093E+02  0.25022371384E+02 -0.99424448753E+02  0.10329233783E+03  0.25500000000E-02 0. -1.
         -2    1    1    2  502    0  0.12568491093E+02 -0.25022371384E+02 -0.12318405122E+03  0.12632654717E+03  0.25500000000E-02 0. -1.
<mgrwt>
<rscale>  0 0.56305311E+02</rscale>
<asrwt>0</asrwt>
<pdfrwt beam="1">  1        1 0.53926057E-03 0.56305311E+02</pdfrwt>
<pdfrwt beam="2">  1       -1 0.34786710E-01 0.56305311E+02</pdfrwt>
<totfact> 0.23001069E+05</totfact>
</mgrwt>
</event>
<event>
 4    1  0.1893769E-002  0.4925643E+02  0.7818608E-02  0.1449394E+00
          1   -1    0    0    0  501  0.00000000000E+00  0.00000000000E+00  0.65769447713E+01  0.65769467024E+01  0.50400000000E-02 0.  1.
         -1   -1    0    0  501    0 -0.00000000000E+00 -0.00000000000E+00 -0.92223505561E+02  0.92223505699E+02  0.50400000000E-02 0.  1.
          2    1    1    2    0  502  0.10220308917E+02  0.20061189346E+02 -0.22800733772E+02  0.32043400246E+02  0.25500000000E-02 0. -1.
         -2    1    1    2  502    0 -0.10220308917E+02 -0.20061189346E+02 -0.62845827018E+02  0.66757052155E+02  0.25500000000E-02 0. -1.
<mgrwt>
<rscale>  0 0.49256431E+02</rscale>
<asrwt>0</asrwt>
<pdfrwt beam="1">  1        1 0.10118379E-02 0.49256431E+02</pdfrwt>
<pdfrwt beam="2">  1       -1 0.14188231E-01 0.49256431E+02</pdfrwt>
<totfact> 0.39131660E+05</totfact>
</mgrwt>
</event>
<event>
 4    1  0.1893769E-002  0.4254270E+02  0.7818608E-02  0.1490292E+00
          1   -1    0    0    0  501  0.00000000000E+00  0.00000000000E+00  0.16843875136E+04  0.16843875136E+04  0.50400000000E-02 0. -1.
         -1   -1    0    0  501    0 -0.00000000000E+00 -0.00000000000E+00 -0.26860243844E+00  0.26864971903E+00  0.50400000000E-02 0. -1.
          2    1    1    2    0  502 -0.12217040985E+02 -0.16360772780E+02  0.60598908225E+03  0.60633299332E+03  0.25500000000E-02 0. -1.
         -2    1    1    2  502    0  0.12217040985E+02  0.16360772780E+02  0.10781298289E+04  0.10783231700E+04  0.25500000000E-02 0. -1.
<mgrwt>
<rscale>  0 0.42542704E+02</rscale>
<asrwt>0</asrwt>
<pdfrwt beam="1">  1        1 0.25913925E+00 0.42542704E+02</pdfrwt>
<pdfrwt beam="2">  1       -1 0.41326659E-04 0.42542704E+02</pdfrwt>
<totfact> 0.69525203E+05</totfact>
</mgrwt>
</event>
<event>
 4    1  0.1893769E-002  0.4094635E+02  0.7818608E-02  0.1501361E+00
          1   -1    0    0    0  501  0.00000000000E+00  0.00000000000E+00  0.29873838856E+03  0.29873838861E+03  0.50400000000E-02 0.  1.
         -1   -1    0    0  501    0 -0.00000000000E+00 -0.00000000000E+00 -0.14030655533E+01  0.14030746055E+01  0.50400000000E-02 0.  1.
          2    1    1    2    0  502 -0.11815128588E+02 -0.16556501354E+02  0.16575783730E+03  0.16700112465E+03  0.25500000000E-02 0.  1.
         -2    1    1    2  502    0  0.11815128588E+02  0.16556501354E+02  0.13157748571E+03  0.13314033857E+03  0.25500000000E-02 0.  1.
<mgrwt>
<rscale>  0 0.40946351E+02</rscale>
<asrwt>0</asrwt>
<pdfrwt beam="1">  1        1 0.45959687E-01 0.40946351E+02</pdfrwt>
<pdfrwt beam="2">  1       -1 0.21585725E-03 0.40946351E+02</pdfrwt>
<totfact> 0.98659153E+05</totfact>
</mgrwt>
</event>
<event>
 4    1  0.1893769E-002  0.4283021E+02  0.7818608E-02  0.1488360E+00
          1   -1    0    0    0  501  0.00000000000E+00  0.00000000000E+00  0.14703132909E+03  0.14703132918E+03  0.50400000000E-02 0.  1.
         -1   -1    0    0  501    0 -0.00000000000E+00 -0.00000000000E+00 -0.31191061309E+01  0.31191102029E+01  0.50400000000E-02 0.  1.
          2    1    1    2    0  502 -0.40740282228E+01  0.19583346866E+02  0.98769996577E+02  0.10077508328E+03  0.25500000000E-02 0.  1.
         -2    1    1    2  502    0  0.40740282228E+01 -0.19583346866E+02  0.45142226387E+02  0.49375356100E+02  0.25500000000E-02 0.  1.
<mgrwt>
<rscale>  0 0.42830206E+02</rscale>
<asrwt>0</asrwt>
<pdfrwt beam="1">  1        1 0.22620204E-01 0.42830206E+02</pdfrwt>
<pdfrwt beam="2">  1       -1 0.47986282E-03 0.42830206E+02</pdfrwt>
<totfact> 0.78512970E+05</totfact>
</mgrwt>
</event>
<event>
 4    1  0.1893769E-002  0.6191752E+02  0.7818608E-02  0.1389957E+00
          1   -1    0    0    0  501  0.00000000000E+00  0.00000000000E+00  0.17584718567E+02  0.17584719290E+02  0.50400000000E-02 0. -1.
         -1   -1    0    0  501    0 -0.00000000000E+00 -0.00000000000E+00 -0.54504407523E+02  0.54504407756E+02  0.50400000000E-02 0. -1.
          2    1    1    2    0  502  0.56275362601E+01 -0.29974152783E+02 -0.12263343376E+02  0.32871090592E+02  0.25500000000E-02 0.  1.
         -2    1    1    2  502    0 -0.56275362601E+01  0.29974152783E+02 -0.24656345579E+02  0.39218036454E+02  0.25500000000E-02 0.  1.
<mgrwt>
<rscale>  0 0.61917516E+02</rscale>
<asrwt>0</asrwt>
<pdfrwt beam="1">  1        1 0.27053414E-02 0.61917516E+02</pdfrwt>
<pdfrwt beam="2">  1       -1 0.83852934E-02 0.61917516E+02</pdfrwt>
<totfact> 0.23824189E+05</totfact>
</mgrwt>
</event>
<event>
 4    1  0.1893769E-002  0.4006977E+02  0.7818608E-02  0.1507699E+00
          1   -1    0    0    0  501  0.00000000000E+00  0.00000000000E+00  0.24365328326E+02  0.24365328847E+02  0.50400000000E-02 0. -1.
         -1   -1    0    0  501    0 -0.00000000000E+00 -0.00000000000E+00 -0.16474086575E+02  0.16474087346E+02  0.50400000000E-02 0. -1.
          2    1    1    2    0  502 -0.19777341737E+02  0.31441597604E+01  0.45635343084E+01  0.20539105109E+02  0.25500000000E-02 0. -1.
         -2    1    1    2  502    0  0.19777341737E+02 -0.31441597604E+01  0.33277074426E+01  0.20300311084E+02  0.25500000000E-02 0. -1.
<mgrwt>
<rscale>  0 0.40069767E+02</rscale>
<asrwt>0</asrwt>
<pdfrwt beam="1">  1        1 0.37485122E-02 0.40069767E+02</pdfrwt>
<pdfrwt beam="2">  1       -1 0.25344750E-02 0.40069767E+02</pdfrwt>
<totfact> 0.76865577E+05</totfact>
</mgrwt>
</event>
<event>
 4    1  0.1893769E-002  0.4709560E+02  0.7818608E-02  0.1461668E+00
         -1   -1    0    0  501    0 -0.00000000000E+00  0.00000000000E+00  0.23524305802E+02  0.23524306341E+02  0.50400000000E-02 0. -1.
          1   -1    0    0    0  501  0.00000000000E+00 -0.00000000000E+00 -0.23571316989E+02  0.23571317528E+02  0.50400000000E-02 0. -1.
          2    1    1    2    0  502 -0.21427586830E+02 -0.31178412283E+01  0.92304968885E+01  0.23538574523E+02  0.25500000000E-02 0. -1.
         -2    1    1    2  502    0  0.21427586830E+02  0.31178412283E+01 -0.92775080757E+01  0.23557049346E+02  0.25500000000E-02 0. -1.
<mgrwt>
<rscale>  0 0.47095600E+02</rscale>
<asrwt>0</asrwt>
<pdfrwt beam="2">  1        1 0.36263566E-02 0.47095600E+02</pdfrwt>
<pdfrwt beam="1">  1       -1 0.36191240E-02 0.47095600E+02</pdfrwt>
<totfact> 0.50808856E+05</totfact>
</mgrwt>
</event>
<event>
 4    1  0.1893769E-002  0.5473491E+02  0.7818608E-02  0.1421357E+00
          1   -1    0    0    0  501  0.00000000000E+00  0.00000000000E+00  0.10607284967E+03  0.10607284979E+03  0.50400000000E-02 0.  1.
         -1   -1    0    0  501    0 -0.00000000000E+00 -0.00000000000E+00 -0.70609735480E+01  0.70609753467E+01  0.50400000000E-02 0.  1.
          2    1    1    2    0  502 -0.23969578015E+02  0.12320896470E+02  0.39672745057E+02  0.47961149557E+02  0.25500000000E-02 0.  1.
         -2    1    1    2  502    0  0.23969578015E+02 -0.12320896470E+02  0.59339131065E+02  0.65172675579E+02  0.25500000000E-02 0.  1.
<mgrwt>
<rscale>  0 0.54734914E+02</rscale>
<asrwt>0</asrwt>
<pdfrwt beam="1">  1        1 0.16318901E-01 0.54734914E+02</pdfrwt>
<pdfrwt beam="2">  1       -1 0.10863037E-02 0.54734914E+02</pdfrwt>
<totfact> 0.40457753E+05</totfact>
</mgrwt>
</event>
<event>
 4    1  0.1893769E-002  0.4235939E+02  0.7818608E-02  0.1491534E+00
         -1   -1    0    0  501    0 -0.00000000000E+00  0.00000000000E+00  0.14846214278E+01  0.14846299827E+01  0.50400000000E-02 0.  1.
          1   -1    0    0    0  501  0.00000000000E+00 -0.00000000000E+00 -0.30214980383E+03  0.30214980387E+03  0.50400000000E-02 0.  1.
          2    1    1    2    0  502  0.69094857097E+01 -0.19503902751E+02 -0.11792841510E+03  0.11972992237E+03  0.25500000000E-02 0.  1.
         -2    1    1    2  502    0 -0.69094857097E+01  0.19503902751E+02 -0.18273676730E+03  0.18390451148E+03  0.25500000000E-02 0.  1.
<mgrwt>
<rscale>  0 0.42359385E+02</rscale>
<asrwt>0</asrwt>
<pdfrwt beam="2">  1        1 0.46484537E-01 0.42359385E+02</pdfrwt>
<pdfrwt beam="1">  1       -1 0.22840420E-03 0.42359385E+02</pdfrwt>
<totfact> 0.91004821E+05</totfact>
</mgrwt>
</event>
<event>
 4    1  0.1893769E-002  0.6984958E+02  0.7818608E-02  0.1360605E+00
          1   -1    0    0    0  501  0.00000000000E+00  0.00000000000E+00  0.12024977593E+04  0.12024977593E+04  0.50400000000E-02 0.  1.
         -1   -1    0    0  501    0 -0.00000000000E+00 -0.00000000000E+00 -0.10143330675E+01  0.10143455888E+01  0.50400000000E-02 0.  1.
          2    1    1    2    0  502  0.14304709976E+02 -0.31651843726E+02  0.66352354758E+03  0.66443205984E+03  0.25500000000E-02 0.  1.
         -2    1    1    2  502    0 -0.14304709976E+02  0.31651843726E+02  0.53795987864E+03  0.53908004505E+03  0.25500000000E-02 0.  1.
<mgrwt>
<rscale>  0 0.69849575E+02</rscale>
<asrwt>0</asrwt>
<pdfrwt beam="1">  1        1 0.18499909E+00 0.69849575E+02</pdfrwt>
<pdfrwt beam="2">  1       -1 0.15605268E-03 0.69849575E+02</pdfrwt>
<totfact> 0.25497930E+05</totfact>
</mgrwt>
</event>
<event>
 4    1  0.1893769E-002  0.4845937E+02  0.7818608E-02  0.1453833E+00
         -1   -1    0    0  501    0 -0.00000000000E+00  0.00000000000E+00  0.62641731115E+02  0.62641731318E+02  0.50400000000E-02 0. -1.
          1   -1    0    0    0  501  0.00000000000E+00 -0.00000000000E+00 -0.93719898344E+01  0.93719911896E+01  0.50400000000E-02 0. -1.
          2    1    1    2    0  502 -0.17437728905E+02  0.15411810884E+02  0.16613090094E+02  0.28593584474E+02  0.25500000000E-02 0.  1.
         -2    1    1    2  502    0  0.17437728905E+02 -0.15411810884E+02  0.36656651187E+02  0.43420138033E+02  0.25500000000E-02 0.  1.
<mgrwt>
<rscale>  0 0.48459374E+02</rscale>
<asrwt>0</asrwt>
<pdfrwt beam="2">  1        1 0.14418447E-02 0.48459374E+02</pdfrwt>
<pdfrwt beam="1">  1       -1 0.96371895E-02 0.48459374E+02</pdfrwt>
<totfact> 0.42988696E+05</totfact>
</mgrwt>
</event>
<event>
 4    1  0.1893769E-002  0.1688437E+03  0.7818608E-02  0.1179059E+00
          1   -1    0    0    0  501  0.00000000000E+00  0.00000000000E+00  0.40376808186E+03  0.40376808189E+03  0.50400000000E-02 0. -1.
         -1   -1    0    0  501    0 -0.00000000000E+00 -0.00000000000E+00 -0.17651332205E+02  0.17651332925E+02  0.50400000000E-02 0. -1.
          2    1    1    2    0  502  0.76792241947E+02  0.84374897095E+01  0.10809436690E+03  0.13286320717E+03  0.25500000000E-02 0.  1.
         -2    1    1    2  502    0 -0.76792241947E+02 -0.84374897095E+01  0.27802238275E+03  0.28855620765E+03  0.25500000000E-02 0.  1.
<mgrwt>
<rscale>  0 0.16884365E+03</rscale>
<asrwt>0</asrwt>
<pdfrwt beam="1">  1        1 0.62118168E-01 0.16884365E+03</pdfrwt>
<pdfrwt beam="2">  1       -1 0.27155896E-02 0.16884365E+03</pdfrwt>
<totfact> 0.24956144E+04</totfact>
</mgrwt>
</event>
<event>
 4    1  0.1893769E-002  0.4657557E+02  0.7818608E-02  0.1464739E+00
          1   -1    0    0    0  501  0.00000000000E+00  0.00000000000E+00  0.67723358524E+03  0.67723358526E+03  0.50400000000E-02 0. -1.
         -1   -1    0    0  501    0 -0.00000000000E+00 -0.00000000000E+00 -0.80078057261E+00  0.80079643298E+00  0.50400000000E-02 0. -1.
          2    1    1    2    0  502 -0.13666072186E+02  0.17461944219E+02  0.23462117135E+03  0.23566666094E+03  0.25500000000E-02 0.  1.
         -2    1    1    2  502    0  0.13666072186E+02 -0.17461944219E+02  0.44181163332E+03  0.44236772076E+03  0.25500000000E-02 0.  1.
<mgrwt>
<rscale>  0 0.46575568E+02</rscale>
<asrwt>0</asrwt>
<pdfrwt beam="1">  1        1 0.10418967E+00 0.46575568E+02</pdfrwt>
<pdfrwt beam="2">  1       -1 0.12319837E-03 0.46575568E+02</pdfrwt>
<totfact> 0.79076971E+05</totfact>
</mgrwt>
</event>
<event>
 4    1  0.1893769E-002  0.4757518E+02  0.7818608E-02  0.1458877E+00
          1   -1    0    0    0  501  0.00000000000E+00  0.00000000000E+00  0.49389420176E+00  0.49391991672E+00  0.50400000000E-02 0. -1.
         -1   -1    0    0  501    0 -0.00000000000E+00 -0.00000000000E+00 -0.11456599574E+04  0.11456599574E+04  0.50400000000E-02 0. -1.
          2    1    1    2    0  502 -0.22233510006E+02  0.37512617274E+01 -0.75518364186E+03  0.75552017436E+03  0.25500000000E-02 0.  1.
         -2    1    1    2  502    0  0.22233510006E+02 -0.37512617274E+01 -0.38998242130E+03  0.39063370293E+03  0.25500000000E-02 0.  1.
<mgrwt>
<rscale>  0 0.47575185E+02</rscale>
<asrwt>0</asrwt>
<pdfrwt beam="1">  1        1 0.75986620E-04 0.47575185E+02</pdfrwt>
<pdfrwt beam="2">  1       -1 0.17625325E+00 0.47575185E+02</pdfrwt>
<totfact> 0.11301729E+05</totfact>
</mgrwt>
</event>
<event>
 4    1  0.1893769E-002  0.5156693E+02  0.7818608E-02  0.1437069E+00
         -1   -1    0    0  501    0 -0.00000000000E+00  0.00000000000E+00  0.46048134510E+01  0.46048162091E+01  0.50400000000E-02 0.  1.
          1   -1    0    0    0  501  0.00000000000E+00 -0.00000000000E+00 -0.14436782446E+03  0.14436782455E+03  0.50400000000E-02 0.  1.
          2    1    1    2    0  502 -0.22941651829E+02  0.11475545940E+02 -0.77403552621E+02  0.81543347418E+02  0.25500000000E-02 0. -1.
         -2    1    1    2  502    0  0.22941651829E+02 -0.11475545940E+02 -0.62359458392E+02  0.67429293343E+02  0.25500000000E-02 0. -1.
<mgrwt>
<rscale>  0 0.51566932E+02</rscale>
<asrwt>0</asrwt>
<pdfrwt beam="2">  1        1 0.22210431E-01 0.51566932E+02</pdfrwt>
<pdfrwt beam="1">  1       -1 0.70843317E-03 0.51566932E+02</pdfrwt>
<totfact> 0.49281717E+05</totfact>
</mgrwt>
</event>
<event>
 4    1  0.1893769E-002  0.7290789E+02  0.7818608E-02  0.1350475E+00
          1   -1    0    0    0  501  0.00000000000E+00  0.00000000000E+00  0.23744435211E+04  0.23744435211E+04  0.50400000000E-02 0. -1.
         -1   -1    0    0  501    0 -0.00000000000E+00 -0.00000000000E+00 -0.55965251613E+00  0.55967520975E+00  0.50400000000E-02 0. -1.
          2    1    1    2    0  502 -0.27516233923E+02 -0.10311725416E+02  0.18897067890E+04  0.18899352431E+04  0.25500000000E-02 0. -1.
         -2    1    1    2  502    0  0.27516233923E+02  0.10311725416E+02  0.48417707965E+03  0.48506795326E+03  0.25500000000E-02 0. -1.
<mgrwt>
<rscale>  0 0.72907894E+02</rscale>
<asrwt>0</asrwt>
<pdfrwt beam="1">  1        1 0.36529700E+00 0.72907894E+02</pdfrwt>
<pdfrwt beam="2">  1       -1 0.86102606E-04 0.72907894E+02</pdfrwt>
<totfact> 0.10576739E+05</totfact>
</mgrwt>
</event>
<event>
 4    1  0.1893769E-002  0.4669181E+02  0.7818608E-02  0.1464048E+00
          1   -1    0    0    0  501  0.00000000000E+00  0.00000000000E+00  0.28670021082E+02  0.28670021525E+02  0.50400000000E-02 0. -1.
         -1   -1    0    0  501    0 -0.00000000000E+00 -0.00000000000E+00 -0.19010490385E+02  0.19010491053E+02  0.50400000000E-02 0. -1.
          2    1    1    2    0  502 -0.21992904126E+02 -0.64378128077E+01  0.27460128883E+00  0.22917431749E+02  0.25500000000E-02 0.  1.
         -2    1    1    2  502    0  0.21992904126E+02  0.64378128077E+01  0.93849294076E+01  0.24763080828E+02  0.25500000000E-02 0.  1.
<mgrwt>
<rscale>  0 0.46691806E+02</rscale>
<asrwt>0</asrwt>
<pdfrwt beam="1">  1        1 0.44107726E-02 0.46691806E+02</pdfrwt>
<pdfrwt beam="2">  1       -1 0.29246909E-02 0.46691806E+02</pdfrwt>
<totfact> 0.52816531E+05</totfact>
</mgrwt>
</event>
<event>
 4    1  0.1893769E-002  0.9733109E+02  0.7818608E-02  0.1286011E+00
          1   -1    0    0    0  501  0.00000000000E+00  0.00000000000E+00  0.11561499217E+04  0.11561499217E+04  0.50400000000E-02 0. -1.
         -1   -1    0    0  501    0 -0.00000000000E+00 -0.00000000000E+00 -0.20484640421E+01  0.20484702423E+01  0.50400000000E-02 0. -1.
          2    1    1    2    0  502 -0.65564745198E+01  0.43420669569E+02  0.32744509766E+03  0.33037650324E+03  0.25500000000E-02 0. -1.
         -2    1    1    2  502    0  0.65564745198E+01 -0.43420669569E+02  0.82665635997E+03  0.82782188869E+03  0.25500000000E-02 0. -1.
<mgrwt>
<rscale>  0 0.97331087E+02</rscale>
<asrwt>0</asrwt>
<pdfrwt beam="1">  1        1 0.17786943E+00 0.97331087E+02</pdfrwt>
<pdfrwt beam="2">  1       -1 0.31514842E-03 0.97331087E+02</pdfrwt>
<totfact> 0.10884936E+05</totfact>
</mgrwt>
</event>
<event>
 4    1  0.1893769E-002  0.4188027E+02  0.7818608E-02  0.1494814E+00
          1   -1    0    0    0  501  0.00000000000E+00  0.00000000000E+00  0.49166998980E+01  0.49167024812E+01  0.50400000000E-02 0.  1.
         -1   -1    0    0  501    0 -0.00000000000E+00 -0.00000000000E+00 -0.89183612601E+02  0.89183612743E+02  0.50400000000E-02 0.  1.
          2    1    1    2    0  502 -0.20648857527E+02  0.15010077082E+01 -0.49189131573E+02  0.53368520803E+02  0.25500000000E-02 0. -1.
         -2    1    1    2  502    0  0.20648857527E+02 -0.15010077082E+01 -0.35077781130E+02  0.40731794421E+02  0.25500000000E-02 0. -1.
<mgrwt>
<rscale>  0 0.41880267E+02</rscale>
<asrwt>0</asrwt>
<pdfrwt beam="1">  1        1 0.75641564E-03 0.41880267E+02</pdfrwt>
<pdfrwt beam="2">  1       -1 0.13720555E-01 0.41880267E+02</pdfrwt>
<totfact> 0.58521508E+05</totfact>
</mgrwt>
</event>
<event>
 4    1  0.1893769E-002  0.4298367E+02  0.7818608E-02  0.1487337E+00
          1   -1    0    0    0  501  0.00000000000E+00  0.00000000000E+00  0.58138114472E+02  0.58138114690E+02  0.50400000000E-02 0.  1.
         -1   -1    0    0  501    0 -0.00000000000E+00 -0.00000000000E+00 -0.79448562088E+01  0.79448578074E+01  0.50400000000E-02 0.  1.
          2    1    1    2    0  502  0.58603079953E+01 -0.19800689852E+02  0.34255243706E+02  0.39997903149E+02  0.25500000000E-02 0.  1.
         -2    1    1    2  502    0 -0.58603079953E+01  0.19800689852E+02  0.15938014557E+02  0.26085069349E+02  0.25500000000E-02 0.  1.
<mgrwt>
<rscale>  0 0.42983672E+02</rscale>
<asrwt>0</asrwt>
<pdfrwt beam="1">  1        1 0.89443256E-02 0.42983672E+02</pdfrwt>
<pdfrwt beam="2">  1       -1 0.12222857E-02 0.42983672E+02</pdfrwt>
<totfact> 0.69316261E+05</totfact>
</mgrwt>
</event>
<event>
 4    1  0.1893769E-002  0.7042755E+02  0.7818608E-02  0.1358645E+00
         -1   -1    0    0  501    0 -0.00000000000E+00  0.00000000000E+00  0.82670296955E+03  0.82670296956E+03  0.50400000000E-02 0. -1.
          1   -1    0    0    0  501  0.00000000000E+00 -0.00000000000E+00 -0.14999419045E+01  0.14999503720E+01  0.50400000000E-02 0. -1.
          2    1    1    2    0  502 -0.33924649383E+02  0.14099534912E+01  0.52237647091E+03  0.52347879343E+03  0.25500000000E-02 0.  1.
         -2    1    1    2  502    0  0.33924649383E+02 -0.14099534912E+01  0.30282655674E+03  0.30472412651E+03  0.25500000000E-02 0.  1.
<mgrwt>
<rscale>  0 0.70427550E+02</rscale>
<asrwt>0</asrwt>
<pdfrwt beam="2">  1        1 0.23076074E-03 0.70427550E+02</pdfrwt>
<pdfrwt beam="1">  1       -1 0.12718519E+00 0.70427550E+02</pdfrwt>
<totfact> 0.61848174E+04</totfact>
</mgrwt>
</event>
<event>
 4    1  0.1893769E-002  0.4932446E+02  0.7818608E-02  0.1449020E+00
          1   -1    0    0    0  501  0.00000000000E+00  0.00000000000E+00  0.35391746679E+02  0.35391747037E+02  0.50400000000E-02 0. -1.
         -1   -1    0    0  501    0 -0.00000000000E+00 -0.00000000000E+00 -0.17185517131E+02  0.17185517870E+02  0.50400000000E-02 0. -1.
          2    1    1    2    0  502  0.22706830820E+02  0.60659081684E+01  0.11384074493E+01  0.23530647798E+02  0.25500000000E-02 0.  1.
         -2    1    1    2  502    0 -0.22706830820E+02 -0.60659081684E+01  0.17067822098E+02  0.29046617109E+02  0.25500000000E-02 0.  1.
<mgrwt>
<rscale>  0 0.49324456E+02</rscale>
<asrwt>0</asrwt>
<pdfrwt beam="1">  1        1 0.54448842E-02 0.49324456E+02</pdfrwt>
<pdfrwt beam="2">  1       -1 0.26439258E-02 0.49324456E+02</pdfrwt>
<totfact> 0.46732340E+05</totfact>
</mgrwt>
</event>
<event>
 4    1  0.1893769E-002  0.1355027E+03  0.7818608E-02  0.1219512E+00
         -1   -1    0    0  501    0 -0.00000000000E+00  0.00000000000E+00  0.30040568929E+01  0.30040611208E+01  0.50400000000E-02 0. -1.
          1   -1    0    0    0  501  0.00000000000E+00 -0.00000000000E+00 -0.15280143446E+04  0.15280143447E+04  0.50400000000E-02 0. -1.
          2    1    1    2    0  502  0.31954910631E+02 -0.53636663599E+02 -0.10597812186E+04  0.10616186883E+04  0.25500000000E-02 0. -1.
         -2    1    1    2  502    0 -0.31954910631E+02  0.53636663599E+02 -0.46522906916E+03  0.46939971750E+03  0.25500000000E-02 0. -1.
<mgrwt>
<rscale>  0 0.13550270E+03</rscale>
<asrwt>0</asrwt>
<pdfrwt beam="2">  1        1 0.23507851E+00 0.13550270E+03</pdfrwt>
<pdfrwt beam="1">  1       -1 0.46216415E-03 0.13550270E+03</pdfrwt>
<totfact> 0.37383873E+04</totfact>
</mgrwt>
</event>
<event>
 4    1  0.1893769E-002  0.1015844E+03  0.7818608E-02  0.1276999E+00
          1   -1    0    0    0  501  0.00000000000E+00  0.00000000000E+00  0.47275900053E+02  0.47275900322E+02  0.50400000000E-02 0.  1.
         -1   -1    0    0  501    0 -0.00000000000E+00 -0.00000000000E+00 -0.54570021501E+02  0.54570021734E+02  0.50400000000E-02 0.  1.
          2    1    1    2    0  502  0.28550479397E+02 -0.70533000674E+01  0.37871729433E+02  0.47949419312E+02  0.25500000000E-02 0. -1.
         -2    1    1    2  502    0 -0.28550479397E+02  0.70533000674E+01 -0.45165850881E+02  0.53896502743E+02  0.25500000000E-02 0. -1.
<mgrwt>
<rscale>  0 0.10158439E+03</rscale>
<asrwt>0</asrwt>
<pdfrwt beam="1">  1        1 0.72732155E-02 0.10158439E+03</pdfrwt>
<pdfrwt beam="2">  1       -1 0.83953879E-02 0.10158439E+03</pdfrwt>
<totfact> 0.68481631E+04</totfact>
</mgrwt>
</event>
<event>
 4    1  0.1893769E-002  0.5893209E+02  0.7818608E-02  0.1402369E+00
         -1   -1    0    0  501    0 -0.00000000000E+00  0.00000000000E+00  0.21058738335E+02  0.21058738938E+02  0.50400000000E-02 0. -1.
          1   -1    0    0    0  501  0.00000000000E+00 -0.00000000000E+00 -0.41229814892E+02  0.41229815201E+02  0.50400000000E-02 0. -1.
          2    1    1    2    0  502  0.17093377618E+02 -0.19254539582E+02 -0.25230893608E+02  0.36048839811E+02  0.25500000000E-02 0. -1.
         -2    1    1    2  502    0 -0.17093377618E+02  0.19254539582E+02  0.50598170505E+01  0.26239714328E+02  0.25500000000E-02 0. -1.
<mgrwt>
<rscale>  0 0.58932094E+02</rscale>
<asrwt>0</asrwt>
<pdfrwt beam="2">  1        1 0.63430485E-02 0.58932094E+02</pdfrwt>
<pdfrwt beam="1">  1       -1 0.32398060E-02 0.58932094E+02</pdfrwt>
<totfact> 0.29865096E+05</totfact>
</mgrwt>
</event>
<event>
 4    1  0.1893769E-002  0.7068746E+02  0.7818608E-02  0.1357771E+00
         -1   -1    0    0  501    0 -0.00000000000E+00  0.00000000000E+00  0.18968786581E+02  0.18968787250E+02  0.50400000000E-02 0.  1.
          1   -1    0    0    0  501  0.00000000000E+00 -0.00000000000E+00 -0.65854460464E+02  0.65854460657E+02  0.50400000000E-02 0.  1.
          2    1    1    2    0  502 -0.48342134664E+01 -0.34801869702E+02 -0.18851540140E+02  0.39873805020E+02  0.25500000000E-02 0. -1.
         -2    1    1    2  502    0  0.48342134664E+01  0.34801869702E+02 -0.28034133743E+02  0.44949442887E+02  0.25500000000E-02 0. -1.
<mgrwt>
<rscale>  0 0.70687460E+02</rscale>
<asrwt>0</asrwt>
<pdfrwt beam="2">  1        1 0.10131455E-01 0.70687460E+02</pdfrwt>
<pdfrwt beam="1">  1       -1 0.29182750E-02 0.70687460E+02</pdfrwt>
<totfact> 0.19495912E+05</totfact>
</mgrwt>
</event>
<event>
 4    1  0.1893769E-002  0.8781683E+02  0.7818608E-02  0.1308226E+00
         -1   -1    0    0  501    0 -0.00000000000E+00  0.00000000000E+00  0.47402000844E+02  0.47402001112E+02  0.50400000000E-02 0. -1.
          1   -1    0    0    0  501  0.00000000000E+00 -0.00000000000E+00 -0.40672305666E+02  0.40672305978E+02  0.50400000000E-02 0. -1.
          2    1    1    2    0  502 -0.11742693209E+02  0.42148483940E+02  0.70584631797E+01  0.44319380086E+02  0.25500000000E-02 0.  1.
         -2    1    1    2  502    0  0.11742693209E+02 -0.42148483940E+02 -0.32876800179E+00  0.43754927004E+02  0.25500000000E-02 0.  1.
<mgrwt>
<rscale>  0 0.87816825E+02</rscale>
<asrwt>0</asrwt>
<pdfrwt beam="2">  1        1 0.62572779E-02 0.87816825E+02</pdfrwt>
<pdfrwt beam="1">  1       -1 0.72926155E-02 0.87816825E+02</pdfrwt>
<totfact> 0.10101161E+05</totfact>
</mgrwt>
</event>
<event>
 4    1  0.1893769E-002  0.5128348E+02  0.7818608E-02  0.1438539E+00
          1   -1    0    0    0  501  0.00000000000E+00  0.00000000000E+00  0.91821376977E+02  0.91821377115E+02  0.50400000000E-02 0. -1.
         -1   -1    0    0  501    0 -0.00000000000E+00 -0.00000000000E+00 -0.71606294293E+01  0.71606312030E+01  0.50400000000E-02 0. -1.
          2    1    1    2    0  502 -0.19943682341E+01 -0.20102695585E+02  0.11849344367E+02  0.23420137550E+02  0.25500000000E-02 0.  1.
         -2    1    1    2  502    0  0.19943682341E+01  0.20102695585E+02  0.72811403180E+02  0.75561870768E+02  0.25500000000E-02 0.  1.
<mgrwt>
<rscale>  0 0.51283485E+02</rscale>
<asrwt>0</asrwt>
<pdfrwt beam="1">  1        1 0.14126365E-01 0.51283485E+02</pdfrwt>
<pdfrwt beam="2">  1       -1 0.11016355E-02 0.51283485E+02</pdfrwt>
<totfact> 0.46828551E+05</totfact>
</mgrwt>
</event>
<event>
 4    1  0.1893769E-002  0.7603671E+02  0.7818608E-02  0.1340690E+00
          1   -1    0    0    0  501  0.00000000000E+00  0.00000000000E+00  0.35172150723E+02  0.35172151084E+02  0.50400000000E-02 0.  1.
         -1   -1    0    0  501    0 -0.00000000000E+00 -0.00000000000E+00 -0.41094884254E+02  0.41094884563E+02  0.50400000000E-02 0.  1.
          2    1    1    2    0  502 -0.16471340036E+02  0.12995474062E+02  0.28839687049E+02  0.35663916558E+02  0.25500000000E-02 0. -1.
         -2    1    1    2  502    0  0.16471340036E+02 -0.12995474062E+02 -0.34762420580E+02  0.40603119089E+02  0.25500000000E-02 0. -1.
<mgrwt>
<rscale>  0 0.76036715E+02</rscale>
<asrwt>0</asrwt>
<pdfrwt beam="1">  1        1 0.54111002E-02 0.76036715E+02</pdfrwt>
<pdfrwt beam="2">  1       -1 0.63222899E-02 0.76036715E+02</pdfrwt>
<totfact> 0.14775104E+05</totfact>
</mgrwt>
</event>
<event>
 4    1  0.1893769E-002  0.4566607E+02  0.7818608E-02  0.1470226E+00
          1   -1    0    0    0  501  0.00000000000E+00  0.00000000000E+00  0.16126604541E+03  0.16126604549E+03  0.50400000000E-02 0.  1.
         -1   -1    0    0  501    0 -0.00000000000E+00 -0.00000000000E+00 -0.32328393689E+01  0.32328432976E+01  0.50400000000E-02 0.  1.
          2    1    1    2    0  502 -0.92037380085E+01 -0.20394214495E+02  0.62621682564E+02  0.66498931659E+02  0.25500000000E-02 0.  1.
         -2    1    1    2  502    0  0.92037380085E+01  0.20394214495E+02  0.95411523478E+02  0.97999957128E+02  0.25500000000E-02 0.  1.
<mgrwt>
<rscale>  0 0.45666073E+02</rscale>
<asrwt>0</asrwt>
<pdfrwt beam="1">  1        1 0.24810160E-01 0.45666073E+02</pdfrwt>
<pdfrwt beam="2">  1       -1 0.49736023E-03 0.45666073E+02</pdfrwt>
<totfact> 0.67972822E+05</totfact>
</mgrwt>
</event>
<event>
 4    1  0.1893769E-002  0.4120025E+02  0.7818608E-02  0.1499560E+00
          1   -1    0    0    0  501  0.00000000000E+00  0.00000000000E+00  0.26630045836E+00  0.26634814759E+00  0.50400000000E-02 0.  1.
         -1   -1    0    0  501    0 -0.00000000000E+00 -0.00000000000E+00 -0.15934149488E+04  0.15934149488E+04  0.50400000000E-02 0.  1.
          2    1    1    2    0  502  0.20596673517E+02  0.60568232313E-01 -0.78217866043E+03  0.78244979613E+03  0.25500000000E-02 0. -1.
         -2    1    1    2  502    0 -0.20596673517E+02 -0.60568232313E-01 -0.81096998792E+03  0.81123150083E+03  0.25500000000E-02 0. -1.
<mgrwt>
<rscale>  0 0.41200249E+02</rscale>
<asrwt>0</asrwt>
<pdfrwt beam="1">  1        1 0.40974246E-04 0.41200249E+02</pdfrwt>
<pdfrwt beam="2">  1       -1 0.24513313E+00 0.41200249E+02</pdfrwt>
<totfact> 0.92250913E+04</totfact>
</mgrwt>
</event>
<event>
 4    1  0.1893769E-002  0.4143526E+02  0.7818608E-02  0.1497907E+00
         -1   -1    0    0  501    0 -0.00000000000E+00  0.00000000000E+00  0.32706597547E+03  0.32706597551E+03  0.50400000000E-02 0. -1.
          1   -1    0    0    0  501  0.00000000000E+00 -0.00000000000E+00 -0.13123303561E+01  0.13123400341E+01  0.50400000000E-02 0. -1.
          2    1    1    2    0  502 -0.16687972479E+02 -0.12206525321E+02  0.17330821795E+03  0.17453717685E+03  0.25500000000E-02 0. -1.
         -2    1    1    2  502    0  0.16687972479E+02  0.12206525321E+02  0.15244542716E+03  0.15384113869E+03  0.25500000000E-02 0. -1.
<mgrwt>
<rscale>  0 0.41435261E+02</rscale>
<asrwt>0</asrwt>
<pdfrwt beam="2">  1        1 0.20189777E-03 0.41435261E+02</pdfrwt>
<pdfrwt beam="1">  1       -1 0.50317833E-01 0.41435261E+02</pdfrwt>
<totfact> 0.42937762E+05</totfact>
</mgrwt>
</event>
<event>
 4    1  0.1893769E-002  0.5386256E+02  0.7818608E-02  0.1425556E+00
          1   -1    0    0    0  501  0.00000000000E+00  0.00000000000E+00  0.16694337838E+04  0.16694337838E+04  0.50400000000E-02 0. -1.
         -1   -1    0    0  501    0 -0.00000000000E+00 -0.00000000000E+00 -0.43444035311E+00  0.43446958698E+00  0.50400000000E-02 0. -1.
          2    1    1    2    0  502 -0.11566599203E+02 -0.24147240651E+02  0.74454804158E+03  0.74502930256E+03  0.25500000000E-02 0. -1.
         -2    1    1    2  502    0  0.11566599203E+02  0.24147240651E+02  0.92445130186E+03  0.92483895083E+03  0.25500000000E-02 0. -1.
<mgrwt>
<rscale>  0 0.53862559E+02</rscale>
<asrwt>0</asrwt>
<pdfrwt beam="1">  1        1 0.25683425E+00 0.53862559E+02</pdfrwt>
<pdfrwt beam="2">  1       -1 0.66839673E-04 0.53862559E+02</pdfrwt>
<totfact> 0.39008198E+05</totfact>
</mgrwt>
</event>
<event>
 4    1  0.1893769E-002  0.4808691E+02  0.7818608E-02  0.1455942E+00
         -1   -1    0    0  501    0 -0.00000000000E+00  0.00000000000E+00  0.26040804502E+01  0.26040853275E+01  0.50400000000E-02 0. -1.
          1   -1    0    0    0  501  0.00000000000E+00 -0.00000000000E+00 -0.22199285042E+03  0.22199285048E+03  0.50400000000E-02 0. -1.
          2    1    1    2    0  502  0.44440782938E+01 -0.23622744525E+02 -0.11226917229E+03  0.11481354861E+03  0.25500000000E-02 0. -1.
         -2    1    1    2  502    0 -0.44440782938E+01  0.23622744525E+02 -0.10711959768E+03  0.10978338719E+03  0.25500000000E-02 0. -1.
<mgrwt>
<rscale>  0 0.48086913E+02</rscale>
<asrwt>0</asrwt>
<pdfrwt beam="2">  1        1 0.34152732E-01 0.48086913E+02</pdfrwt>
<pdfrwt beam="1">  1       -1 0.40062832E-03 0.48086913E+02</pdfrwt>
<totfact> 0.63087724E+05</totfact>
</mgrwt>
</event>
<event>
 4    1  0.1893769E-002  0.7786250E+02  0.7818608E-02  0.1335229E+00
          1   -1    0    0    0  501  0.00000000000E+00  0.00000000000E+00  0.32853798070E+03  0.32853798073E+03  0.50400000000E-02 0. -1.
         -1   -1    0    0  501    0 -0.00000000000E+00 -0.00000000000E+00 -0.46132924639E+01  0.46132952170E+01  0.50400000000E-02 0. -1.
          2    1    1    2    0  502  0.31675423184E+02 -0.59544163854E+00  0.65150355854E+02  0.72444847016E+02  0.25500000000E-02 0.  1.
         -2    1    1    2  502    0 -0.31675423184E+02  0.59544163854E+00  0.25877433238E+03  0.26070642894E+03  0.25500000000E-02 0.  1.
<mgrwt>
<rscale>  0 0.77862501E+02</rscale>
<asrwt>0</asrwt>
<pdfrwt beam="1">  1        1 0.50544320E-01 0.77862501E+02</pdfrwt>
<pdfrwt beam="2">  1       -1 0.70973730E-03 0.77862501E+02</pdfrwt>
<totfact> 0.19768053E+05</totfact>
</mgrwt>
</event>
<event>
 4    1  0.1893769E-002  0.5859452E+02  0.7818608E-02  0.1403826E+00
         -1   -1    0    0  501    0 -0.00000000000E+00  0.00000000000E+00  0.61417150680E+01  0.61417171359E+01  0.50400000000E-02 0.  1.
          1   -1    0    0    0  501  0.00000000000E+00 -0.00000000000E+00 -0.13975401609E+03  0.13975401618E+03  0.50400000000E-02 0.  1.
          2    1    1    2    0  502  0.24787785410E+01 -0.28303511667E+02 -0.84604537642E+02  0.89247750178E+02  0.25500000000E-02 0. -1.
         -2    1    1    2  502    0 -0.24787785410E+01  0.28303511667E+02 -0.49007763384E+02  0.56647983143E+02  0.25500000000E-02 0. -1.
<mgrwt>
<rscale>  0 0.58594522E+02</rscale>
<asrwt>0</asrwt>
<pdfrwt beam="2">  1        1 0.21500616E-01 0.58594522E+02</pdfrwt>
<pdfrwt beam="1">  1       -1 0.94487951E-03 0.58594522E+02</pdfrwt>
<totfact> 0.35428263E+05</totfact>
</mgrwt>
</event>
<event>
 4    1  0.1893769E-002  0.2249705E+03  0.7818608E-02  0.1130231E+00
          1   -1    0    0    0  501  0.00000000000E+00  0.00000000000E+00  0.45315895733E+01  0.45315923760E+01  0.50400000000E-02 0. -1.
         -1   -1    0    0  501    0 -0.00000000000E+00 -0.00000000000E+00 -0.27921611970E+04  0.27921611970E+04  0.50400000000E-02 0. -1.
          2    1    1    2    0  502 -0.37861582178E+02 -0.55884555658E+01 -0.27087347876E+04  0.27090051457E+04  0.25500000000E-02 0.  1.
         -2    1    1    2  502    0  0.37861582178E+02  0.55884555658E+01 -0.78894819852E+02  0.87687643637E+02  0.25500000000E-02 0.  1.
<mgrwt>
<rscale>  0 0.22497051E+03</rscale>
<asrwt>0</asrwt>
<pdfrwt beam="1">  1        1 0.69717008E-03 0.22497051E+03</pdfrwt>
<pdfrwt beam="2">  1       -1 0.42956188E+00 0.22497051E+03</pdfrwt>
<totfact> 0.15083480E+02</totfact>
</mgrwt>
</event>
<event>
 4    1  0.1893769E-002  0.9842242E+02  0.7818608E-02  0.1283649E+00
         -1   -1    0    0  501    0 -0.00000000000E+00  0.00000000000E+00  0.82337818598E+02  0.82337818752E+02  0.50400000000E-02 0. -1.
          1   -1    0    0    0  501  0.00000000000E+00 -0.00000000000E+00 -0.29412281970E+02  0.29412282402E+02  0.50400000000E-02 0. -1.
          2    1    1    2    0  502  0.36210602665E+02 -0.61825677949E+01 -0.10717654431E+02  0.38266173220E+02  0.25500000000E-02 0. -1.
         -2    1    1    2  502    0 -0.36210602665E+02  0.61825677949E+01  0.63643191059E+02  0.73483927934E+02  0.25500000000E-02 0. -1.
<mgrwt>
<rscale>  0 0.98422420E+02</rscale>
<asrwt>0</asrwt>
<pdfrwt beam="2">  1        1 0.45249666E-02 0.98422420E+02</pdfrwt>
<pdfrwt beam="1">  1       -1 0.12667357E-01 0.98422420E+02</pdfrwt>
<totfact> 0.69229436E+04</totfact>
</mgrwt>
</event>
<event>
 4    1  0.1893769E-002  0.1588168E+03  0.7818608E-02  0.1190039E+00
         -1   -1    0    0  501    0 -0.00000000000E+00  0.00000000000E+00  0.24406094097E+03  0.24406094103E+03  0.50400000000E-02 0.  1.
          1   -1    0    0    0  501  0.00000000000E+00 -0.00000000000E+00 -0.25836542967E+02  0.25836543458E+02  0.50400000000E-02 0.  1.
          2    1    1    2    0  502 -0.79139047688E+02  0.54548539919E+01  0.10299738935E+03  0.13000464038E+03  0.25500000000E-02 0. -1.
         -2    1    1    2  502    0  0.79139047688E+02 -0.54548539919E+01  0.11522700865E+03  0.13989284410E+03  0.25500000000E-02 0. -1.
<mgrwt>
<rscale>  0 0.15881676E+03</rscale>
<asrwt>0</asrwt>
<pdfrwt beam="2">  1        1 0.39748528E-02 0.15881676E+03</pdfrwt>
<pdfrwt beam="1">  1       -1 0.37547837E-01 0.15881676E+03</pdfrwt>
<totfact> 0.15020754E+04</totfact>
</mgrwt>
</event>
<event>
 4    1  0.1893769E-002  0.5909308E+02  0.7818608E-02  0.1401678E+00
         -1   -1    0    0  501    0 -0.00000000000E+00  0.00000000000E+00  0.90608433909E+00  0.90609835622E+00  0.50400000000E-02 0.  1.
          1   -1    0    0    0  501  0.00000000000E+00 -0.00000000000E+00 -0.96347674690E+03  0.96347674691E+03  0.50400000000E-02 0.  1.
          2    1    1    2    0  502 -0.69409862336E+01  0.26529561157E+02 -0.30176608464E+03  0.30300951264E+03  0.25500000000E-02 0.  1.
         -2    1    1    2  502    0  0.69409862336E+01 -0.26529561157E+02 -0.66080457792E+03  0.66137333263E+03  0.25500000000E-02 0.  1.
<mgrwt>
<rscale>  0 0.59093078E+02</rscale>
<asrwt>0</asrwt>
<pdfrwt beam="2">  1        1 0.14822637E+00 0.59093078E+02</pdfrwt>
<pdfrwt beam="1">  1       -1 0.13939944E-03 0.59093078E+02</pdfrwt>
<totfact> 0.42146875E+05</totfact>
</mgrwt>
</event>
<event>
 4    1  0.1893769E-002  0.6408956E+02  0.7818608E-02  0.1381429E+00
          1   -1    0    0    0  501  0.00000000000E+00  0.00000000000E+00  0.42483080144E+03  0.42483080147E+03  0.50400000000E-02 0.  1.
         -1   -1    0    0  501    0 -0.00000000000E+00 -0.00000000000E+00 -0.24171197008E+01  0.24171249553E+01  0.50400000000E-02 0.  1.
          2    1    1    2    0  502 -0.22279547540E+02 -0.18574031770E+02  0.30200120776E+03  0.30339100578E+03  0.25500000000E-02 0. -1.
         -2    1    1    2  502    0  0.22279547540E+02  0.18574031770E+02  0.12041247398E+03  0.12385692064E+03  0.25500000000E-02 0. -1.
<mgrwt>
<rscale>  0 0.64089563E+02</rscale>
<asrwt>0</asrwt>
<pdfrwt beam="1">  1        1 0.65358574E-01 0.64089563E+02</pdfrwt>
<pdfrwt beam="2">  1       -1 0.37186504E-03 0.64089563E+02</pdfrwt>
<totfact> 0.34129017E+05</totfact>
</mgrwt>
</event>
<event>
 4    1  0.1893769E-002  0.6156613E+02  0.7818608E-02  0.1391374E+00
         -1   -1    0    0  501    0 -0.00000000000E+00  0.00000000000E+00  0.11681358207E+01  0.11681466934E+01  0.50400000000E-02 0.  1.
          1   -1    0    0    0  501  0.00000000000E+00 -0.00000000000E+00 -0.81120078322E+03  0.81120078323E+03  0.50400000000E-02 0.  1.
          2    1    1    2    0  502  0.52033620779E+01 -0.28964584745E+02 -0.52419262031E+03  0.52501802382E+03  0.25500000000E-02 0.  1.
         -2    1    1    2  502    0 -0.52033620779E+01  0.28964584745E+02 -0.28584002709E+03  0.28735090611E+03  0.25500000000E-02 0.  1.
<mgrwt>
<rscale>  0 0.61566131E+02</rscale>
<asrwt>0</asrwt>
<pdfrwt beam="2">  1        1 0.12479967E+00 0.61566131E+02</pdfrwt>
<pdfrwt beam="1">  1       -1 0.17971469E-03 0.61566131E+02</pdfrwt>
<totfact> 0.39052402E+05</totfact>
</mgrwt>
</event>
<event>
 4    1  0.1893769E-002  0.5657475E+02  0.7818608E-02  0.1412795E+00
          1   -1    0    0    0  501  0.00000000000E+00  0.00000000000E+00  0.18337916122E+04  0.18337916122E+04  0.50400000000E-02 0. -1.
         -1   -1    0    0  501    0 -0.00000000000E+00 -0.00000000000E+00 -0.43633579485E+00  0.43636490174E+00  0.50400000000E-02 0. -1.
          2    1    1    2    0  502 -0.15903191462E+02 -0.15429904254E+02  0.14867603632E+04  0.14869254759E+04  0.25500000000E-02 0. -1.
         -2    1    1    2  502    0  0.15903191462E+02  0.15429904254E+02  0.34659491320E+03  0.34730250115E+03  0.25500000000E-02 0. -1.
<mgrwt>
<rscale>  0 0.56574751E+02</rscale>
<asrwt>0</asrwt>
<pdfrwt beam="1">  1        1 0.28212335E+00 0.56574751E+02</pdfrwt>
<pdfrwt beam="2">  1       -1 0.67130451E-04 0.56574751E+02</pdfrwt>
<totfact> 0.30998349E+05</totfact>
</mgrwt>
</event>
<event>
 4    1  0.1893769E-002  0.5493089E+02  0.7818608E-02  0.1420426E+00
         -1   -1    0    0  501    0 -0.00000000000E+00  0.00000000000E+00  0.95937362062E+01  0.95937375300E+01  0.50400000000E-02 0. -1.
          1   -1    0    0    0  501  0.00000000000E+00 -0.00000000000E+00 -0.78629478513E+02  0.78629478675E+02  0.50400000000E-02 0. -1.
          2    1    1    2    0  502 -0.17686599441E+02 -0.15297363701E+02 -0.57654597780E+02  0.62216378773E+02  0.25500000000E-02 0. -1.
         -2    1    1    2  502    0  0.17686599441E+02  0.15297363701E+02 -0.11381144528E+02  0.26006837432E+02  0.25500000000E-02 0. -1.
<mgrwt>
<rscale>  0 0.54930885E+02</rscale>
<asrwt>0</asrwt>
<pdfrwt beam="2">  1        1 0.12096843E-01 0.54930885E+02</pdfrwt>
<pdfrwt beam="1">  1       -1 0.14759596E-02 0.54930885E+02</pdfrwt>
<totfact> 0.38535032E+05</totfact>
</mgrwt>
</event>
<event>
 4    1  0.1893769E-002  0.1128672E+03  0.7818608E-02  0.1255351E+00
         -1   -1    0    0  501    0 -0.00000000000E+00  0.00000000000E+00  0.81566459159E+02  0.81566459315E+02  0.50400000000E-02 0. -1.
          1   -1    0    0    0  501  0.00000000000E+00 -0.00000000000E+00 -0.39044872895E+02  0.39044873220E+02  0.50400000000E-02 0. -1.
          2    1    1    2    0  502 -0.18780725585E+02 -0.45803865181E+02 -0.76913595305E+01  0.50098570209E+02  0.25500000000E-02 0. -1.
         -2    1    1    2  502    0  0.18780725585E+02  0.45803865181E+02  0.50212945795E+02  0.70512762327E+02  0.25500000000E-02 0. -1.
<mgrwt>
<rscale>  0 0.11286722E+03</rscale>
<asrwt>0</asrwt>
<pdfrwt beam="2">  1        1 0.60069036E-02 0.11286722E+03</pdfrwt>
<pdfrwt beam="1">  1       -1 0.12548686E-01 0.11286722E+03</pdfrwt>
<totfact> 0.48794539E+04</totfact>
</mgrwt>
</event>
<event>
 4    1  0.1893769E-002  0.4331607E+02  0.7818608E-02  0.1485136E+00
          1   -1    0    0    0  501  0.00000000000E+00  0.00000000000E+00  0.74498474822E+01  0.74498491870E+01  0.50400000000E-02 0. -1.
         -1   -1    0    0  501    0 -0.00000000000E+00 -0.00000000000E+00 -0.62963769096E+02  0.62963769298E+02  0.50400000000E-02 0. -1.
          2    1    1    2    0  502 -0.50702890879E+01  0.21050749197E+02 -0.28534292848E+02  0.35819655889E+02  0.25500000000E-02 0. -1.
         -2    1    1    2  502    0  0.50702890879E+01 -0.21050749197E+02 -0.26979628766E+02  0.34593962595E+02  0.25500000000E-02 0. -1.
<mgrwt>
<rscale>  0 0.43316073E+02</rscale>
<asrwt>0</asrwt>
<pdfrwt beam="1">  1        1 0.11461306E-02 0.43316073E+02</pdfrwt>
<pdfrwt beam="2">  1       -1 0.96867335E-02 0.43316073E+02</pdfrwt>
<totfact> 0.56529477E+05</totfact>
</mgrwt>
</event>
<event>
 4    1  0.1893769E-002  0.5349779E+02  0.7818608E-02  0.1427339E+00
          1   -1    0    0    0  501  0.00000000000E+00  0.00000000000E+00  0.66204838019E+02  0.66204838211E+02  0.50400000000E-02 0.  1.
         -1   -1    0    0  501    0 -0.00000000000E+00 -0.00000000000E+00 -0.10807417908E+02  0.10807419083E+02  0.50400000000E-02 0.  1.
          2    1    1    2    0  502 -0.24524796697E+02 -0.76402384764E+01  0.16958490344E+02  0.30780339476E+02  0.25500000000E-02 0.  1.
         -2    1    1    2  502    0  0.24524796697E+02  0.76402384764E+01  0.38438929768E+02  0.46231917818E+02  0.25500000000E-02 0.  1.
<mgrwt>
<rscale>  0 0.53497791E+02</rscale>
<asrwt>0</asrwt>
<pdfrwt beam="1">  1        1 0.10185360E-01 0.53497791E+02</pdfrwt>
<pdfrwt beam="2">  1       -1 0.16626798E-02 0.53497791E+02</pdfrwt>
<totfact> 0.40405603E+05</totfact>
</mgrwt>
</event>
<event>
 4    1  0.1893769E-002  0.6121149E+02  0.7818608E-02  0.1392817E+00
          1   -1    0    0    0  501  0.00000000000E+00  0.00000000000E+00  0.86965298068E+01  0.86965312673E+01  0.50400000000E-02 0.  1.
         -1   -1    0    0  501    0 -0.00000000000E+00 -0.00000000000E+00 -0.10771095828E+03  0.10771095840E+03  0.50400000000E-02 0.  1.
          2    1    1    2    0  502  0.21924954304E+02  0.20172642522E+02 -0.36185284644E+02  0.46872315484E+02  0.25500000000E-02 0. -1.
         -2    1    1    2  502    0 -0.21924954304E+02 -0.20172642522E+02 -0.62829143829E+02  0.69535174181E+02  0.25500000000E-02 0. -1.
<mgrwt>
<rscale>  0 0.61211491E+02</rscale>
<asrwt>0</asrwt>
<pdfrwt beam="1">  1        1 0.13379279E-02 0.61211491E+02</pdfrwt>
<pdfrwt beam="2">  1       -1 0.16570916E-01 0.61211491E+02</pdfrwt>
<totfact> 0.22179363E+05</totfact>
</mgrwt>
</event>
<event>
 4    1  0.1893769E-002  0.4705285E+02  0.7818608E-02  0.1461918E+00
         -1   -1    0    0  501    0 -0.00000000000E+00  0.00000000000E+00  0.52386108517E+00  0.52388532920E+00  0.50400000000E-02 0. -1.
          1   -1    0    0    0  501  0.00000000000E+00 -0.00000000000E+00 -0.10565392928E+04  0.10565392928E+04  0.50400000000E-02 0. -1.
          2    1    1    2    0  502  0.17720395769E+02 -0.14016245781E+02 -0.67536641417E+03  0.67574422748E+03  0.25500000000E-02 0.  1.
         -2    1    1    2  502    0 -0.17720395769E+02  0.14016245781E+02 -0.38064901757E+03  0.38131895069E+03  0.25500000000E-02 0.  1.
<mgrwt>
<rscale>  0 0.47052849E+02</rscale>
<asrwt>0</asrwt>
<pdfrwt beam="2">  1        1 0.16254280E+00 0.47052849E+02</pdfrwt>
<pdfrwt beam="1">  1       -1 0.80596725E-04 0.47052849E+02</pdfrwt>
<totfact> 0.72600459E+05</totfact>
</mgrwt>
</event>
<event>
 4    1  0.1893769E-002  0.5018094E+02  0.7818608E-02  0.1444368E+00
         -1   -1    0    0  501    0 -0.00000000000E+00  0.00000000000E+00  0.24755638148E+02  0.24755638661E+02  0.50400000000E-02 0.  1.
          1   -1    0    0    0  501  0.00000000000E+00 -0.00000000000E+00 -0.25429833126E+02  0.25429833625E+02  0.50400000000E-02 0.  1.
          2    1    1    2    0  502 -0.21371306641E+02 -0.12243538338E+02 -0.51223790900E+01  0.25157021935E+02  0.25500000000E-02 0.  1.
         -2    1    1    2  502    0  0.21371306641E+02  0.12243538338E+02  0.44481841123E+01  0.25028450351E+02  0.25500000000E-02 0.  1.
<mgrwt>
<rscale>  0 0.50180943E+02</rscale>
<asrwt>0</asrwt>
<pdfrwt beam="2">  1        1 0.39122821E-02 0.50180943E+02</pdfrwt>
<pdfrwt beam="1">  1       -1 0.38085598E-02 0.50180943E+02</pdfrwt>
<totfact> 0.43395218E+05</totfact>
</mgrwt>
</event>
<event>
 4    1  0.1893769E-002  0.6623527E+02  0.7818608E-02  0.1373384E+00
         -1   -1    0    0  501    0 -0.00000000000E+00  0.00000000000E+00  0.28180774590E+02  0.28180775040E+02  0.50400000000E-02 0. -1.
          1   -1    0    0    0  501  0.00000000000E+00 -0.00000000000E+00 -0.38919357633E+02  0.38919357959E+02  0.50400000000E-02 0. -1.
          2    1    1    2    0  502  0.22436681637E+02 -0.14047809453E+02 -0.25529696028E+02  0.36776500909E+02  0.25500000000E-02 0. -1.
         -2    1    1    2  502    0 -0.22436681637E+02  0.14047809453E+02  0.14791112985E+02  0.30323632090E+02  0.25500000000E-02 0. -1.
<mgrwt>
<rscale>  0 0.66235268E+02</rscale>
<asrwt>0</asrwt>
<pdfrwt beam="2">  1        1 0.59875936E-02 0.66235268E+02</pdfrwt>
<pdfrwt beam="1">  1       -1 0.43355038E-02 0.66235268E+02</pdfrwt>
<totfact> 0.21762287E+05</totfact>
</mgrwt>
</event>
<event>
 4    1  0.1893769E-002  0.4286287E+02  0.7818608E-02  0.1488142E+00
          1   -1    0    0    0  501  0.00000000000E+00  0.00000000000E+00  0.55252324507E+00  0.55254623150E+00  0.50400000000E-02 0.  1.
         -1   -1    0    0  501    0 -0.00000000000E+00 -0.00000000000E+00 -0.83127132937E+03  0.83127132938E+03  0.50400000000E-02 0.  1.
          2    1    1    2    0  502 -0.95112181330E+01  0.19064340188E+02 -0.37028771098E+03  0.37090012301E+03  0.25500000000E-02 0. -1.
         -2    1    1    2  502    0  0.95112181330E+01 -0.19064340188E+02 -0.46043109514E+03  0.46092375261E+03  0.25500000000E-02 0. -1.
<mgrwt>
<rscale>  0 0.42862865E+02</rscale>
<asrwt>0</asrwt>
<pdfrwt beam="1">  1        1 0.85006011E-04 0.42862865E+02</pdfrwt>
<pdfrwt beam="2">  1       -1 0.12788690E+00 0.42862865E+02</pdfrwt>
<totfact> 0.21303468E+05</totfact>
</mgrwt>
</event>
<event>
 4    1  0.1893769E-002  0.5301509E+02  0.7818608E-02  0.1429726E+00
         -1   -1    0    0  501    0 -0.00000000000E+00  0.00000000000E+00  0.21746331775E+02  0.21746332359E+02  0.50400000000E-02 0.  1.
          1   -1    0    0    0  501  0.00000000000E+00 -0.00000000000E+00 -0.32311189452E+02  0.32311189845E+02  0.50400000000E-02 0.  1.
          2    1    1    2    0  502  0.21511972933E+02  0.36806401599E+01  0.10057917838E+02  0.24030684743E+02  0.25500000000E-02 0.  1.
         -2    1    1    2  502    0 -0.21511972933E+02 -0.36806401599E+01 -0.20622775516E+02  0.30026837461E+02  0.25500000000E-02 0.  1.
<mgrwt>
<rscale>  0 0.53015087E+02</rscale>
<asrwt>0</asrwt>
<pdfrwt beam="2">  1        1 0.49709523E-02 0.53015087E+02</pdfrwt>
<pdfrwt beam="1">  1       -1 0.33455896E-02 0.53015087E+02</pdfrwt>
<totfact> 0.38451408E+05</totfact>
</mgrwt>
</event>
<event>
 4    1  0.1893769E-002  0.5885107E+02  0.7818608E-02  0.1402717E+00
         -1   -1    0    0  501    0 -0.00000000000E+00  0.00000000000E+00  0.25825005438E+01  0.25825054618E+01  0.50400000000E-02 0.  1.
          1   -1    0    0    0  501  0.00000000000E+00 -0.00000000000E+00 -0.33528024018E+03  0.33528024022E+03  0.50400000000E-02 0.  1.
          2    1    1    2    0  502 -0.23228549330E+02 -0.17977443835E+02 -0.15622740528E+03  0.15896463808E+03  0.25500000000E-02 0.  1.
         -2    1    1    2  502    0  0.23228549330E+02  0.17977443835E+02 -0.17647033435E+03  0.17889810760E+03  0.25500000000E-02 0.  1.
<mgrwt>
<rscale>  0 0.58851074E+02</rscale>
<asrwt>0</asrwt>
<pdfrwt beam="2">  1        1 0.51581541E-01 0.58851074E+02</pdfrwt>
<pdfrwt beam="1">  1       -1 0.39730842E-03 0.58851074E+02</pdfrwt>
<totfact> 0.40829218E+05</totfact>
</mgrwt>
</event>
<event>
 4    1  0.1893769E-002  0.4846748E+02  0.7818608E-02  0.1453787E+00
         -1   -1    0    0  501    0 -0.00000000000E+00  0.00000000000E+00  0.17690195247E+03  0.17690195254E+03  0.50400000000E-02 0.  1.
          1   -1    0    0    0  501  0.00000000000E+00 -0.00000000000E+00 -0.33197703252E+01  0.33197741510E+01  0.50400000000E-02 0.  1.
          2    1    1    2    0  502 -0.17953212187E+02  0.10623672559E+02  0.40933349911E+02  0.45942566188E+02  0.25500000000E-02 0.  1.
         -2    1    1    2  502    0  0.17953212187E+02 -0.10623672559E+02  0.13264883223E+03  0.13427916051E+03  0.25500000000E-02 0.  1.
<mgrwt>
<rscale>  0 0.48467482E+02</rscale>
<asrwt>0</asrwt>
<pdfrwt beam="2">  1        1 0.51073425E-03 0.48467482E+02</pdfrwt>
<pdfrwt beam="1">  1       -1 0.27215683E-01 0.48467482E+02</pdfrwt>
<totfact> 0.35764577E+05</totfact>
</mgrwt>
</event>
<event>
 4    1  0.1893769E-002  0.2185469E+03  0.7818608E-02  0.1134971E+00
          1   -1    0    0    0  501  0.00000000000E+00  0.00000000000E+00  0.64057874070E+03  0.64057874072E+03  0.50400000000E-02 0. -1.
         -1   -1    0    0  501    0 -0.00000000000E+00 -0.00000000000E+00 -0.18640464127E+02  0.18640464808E+02  0.50400000000E-02 0. -1.
          2    1    1    2    0  502 -0.86336137263E+02  0.11525479469E+02  0.51000230458E+03  0.51738681463E+03  0.25500000000E-02 0.  1.
         -2    1    1    2  502    0  0.86336137263E+02 -0.11525479469E+02  0.11193597200E+03  0.14183239090E+03  0.25500000000E-02 0.  1.
<mgrwt>
<rscale>  0 0.21854689E+03</rscale>
<asrwt>0</asrwt>
<pdfrwt beam="1">  1        1 0.98550582E-01 0.21854689E+03</pdfrwt>
<pdfrwt beam="2">  1       -1 0.28677636E-02 0.21854689E+03</pdfrwt>
<totfact> 0.12714447E+04</totfact>
</mgrwt>
</event>
<event>
 4    1  0.1893769E-002  0.5828059E+02  0.7818608E-02  0.1405192E+00
         -1   -1    0    0  501    0 -0.00000000000E+00  0.00000000000E+00  0.34789208026E+01  0.34789244534E+01  0.50400000000E-02 0. -1.
          1   -1    0    0    0  501  0.00000000000E+00 -0.00000000000E+00 -0.24408611827E+03  0.24408611832E+03  0.50400000000E-02 0. -1.
          2    1    1    2    0  502  0.79997822918E+00 -0.21609571744E+02 -0.37330513680E+02  0.43141404871E+02  0.25500000000E-02 0. -1.
         -2    1    1    2  502    0 -0.79997822918E+00  0.21609571744E+02 -0.20327668379E+03  0.20442363791E+03  0.25500000000E-02 0. -1.
<mgrwt>
<rscale>  0 0.58280588E+02</rscale>
<asrwt>0</asrwt>
<pdfrwt beam="2">  1        1 0.37551697E-01 0.58280588E+02</pdfrwt>
<pdfrwt beam="1">  1       -1 0.53521906E-03 0.58280588E+02</pdfrwt>
<totfact> 0.39546797E+05</totfact>
</mgrwt>
</event>
<event>
 4    1  0.1893769E-002  0.1758879E+03  0.7818608E-02  0.1171843E+00
         -1   -1    0    0  501    0 -0.00000000000E+00  0.00000000000E+00  0.38980290083E+01  0.38980322665E+01  0.50400000000E-02 0.  1.
          1   -1    0    0    0  501  0.00000000000E+00 -0.00000000000E+00 -0.19841147417E+04  0.19841147417E+04  0.50400000000E-02 0.  1.
          2    1    1    2    0  502  0.72683651346E+02 -0.26826058277E+02 -0.51977516479E+03  0.52551762341E+03  0.25500000000E-02 0.  1.
         -2    1    1    2  502    0 -0.72683651346E+02  0.26826058277E+02 -0.14604415479E+04  0.14624951505E+04  0.25500000000E-02 0.  1.
<mgrwt>
<rscale>  0 0.17588792E+03</rscale>
<asrwt>0</asrwt>
<pdfrwt beam="2">  1        1 0.30524762E+00 0.17588792E+03</pdfrwt>
<pdfrwt beam="1">  1       -1 0.59969861E-03 0.17588792E+03</pdfrwt>
<totfact> 0.13387653E+04</totfact>
</mgrwt>
</event>
<event>
 4    1  0.1893769E-002  0.1037970E+03  0.7818608E-02  0.1272508E+00
          1   -1    0    0    0  501  0.00000000000E+00  0.00000000000E+00  0.10408906707E+02  0.10408907927E+02  0.50400000000E-02 0. -1.
         -1   -1    0    0  501    0 -0.00000000000E+00 -0.00000000000E+00 -0.25876460471E+03  0.25876460476E+03  0.50400000000E-02 0. -1.
          2    1    1    2    0  502  0.40230970320E+02 -0.31576405361E+02 -0.10129581616E+03  0.11347441441E+03  0.25500000000E-02 0.  1.
         -2    1    1    2  502    0 -0.40230970320E+02  0.31576405361E+02 -0.14705988185E+03  0.15569909827E+03  0.25500000000E-02 0.  1.
<mgrwt>
<rscale>  0 0.10379705E+03</rscale>
<asrwt>0</asrwt>
<pdfrwt beam="1">  1        1 0.16013706E-02 0.10379705E+03</pdfrwt>
<pdfrwt beam="2">  1       -1 0.39809935E-01 0.10379705E+03</pdfrwt>
<totfact> 0.45549387E+04</totfact>
</mgrwt>
</event>
<event>
 4    1  0.1893769E-002  0.1126527E+03  0.7818608E-02  0.1255735E+00
         -1   -1    0    0  501    0 -0.00000000000E+00  0.00000000000E+00  0.10891652718E+02  0.10891653885E+02  0.50400000000E-02 0.  1.
          1   -1    0    0    0  501  0.00000000000E+00 -0.00000000000E+00 -0.29129240762E+03  0.29129240766E+03  0.50400000000E-02 0.  1.
          2    1    1    2    0  502  0.55981908238E+01  0.38013130416E+02 -0.29720364088E+02  0.48576103925E+02  0.25500000000E-02 0. -1.
         -2    1    1    2  502    0 -0.55981908238E+01 -0.38013130416E+02 -0.25068039081E+03  0.25360795762E+03  0.25500000000E-02 0. -1.
<mgrwt>
<rscale>  0 0.11265267E+03</rscale>
<asrwt>0</asrwt>
<pdfrwt beam="2">  1        1 0.44814211E-01 0.11265267E+03</pdfrwt>
<pdfrwt beam="1">  1       -1 0.16756392E-02 0.11265267E+03</pdfrwt>
<totfact> 0.72031008E+04</totfact>
</mgrwt>
</event>
<event>
 4    1  0.1893769E-002  0.6402447E+03  0.7818608E-02  0.9825258E-01
         -1   -1    0    0  501    0 -0.00000000000E+00  0.00000000000E+00  0.15200195813E+03  0.15200195821E+03  0.50400000000E-02 0.  1.
          1   -1    0    0    0  501  0.00000000000E+00 -0.00000000000E+00 -0.67419081929E+03  0.67419081931E+03  0.50400000000E-02 0.  1.
          2    1    1    2    0  502 -0.26283379953E+02 -0.28653951122E+03 -0.44213537752E+03  0.52752194231E+03  0.25500000000E-02 0. -1.
         -2    1    1    2  502    0  0.26283379953E+02  0.28653951122E+03 -0.80053483641E+02  0.29867083521E+03  0.25500000000E-02 0. -1.
<mgrwt>
<rscale>  0 0.64024472E+03</rscale>
<asrwt>0</asrwt>
<pdfrwt beam="2">  1        1 0.10372166E+00 0.64024472E+03</pdfrwt>
<pdfrwt beam="1">  1       -1 0.23384917E-01 0.64024472E+03</pdfrwt>
<totfact> 0.45767187E+02</totfact>
</mgrwt>
</event>
<event>
 4    1  0.1893769E-002  0.7530853E+02  0.7818608E-02  0.1342918E+00
         -1   -1    0    0  501    0 -0.00000000000E+00  0.00000000000E+00  0.28950743568E+01  0.28950787438E+01  0.50400000000E-02 0. -1.
          1   -1    0    0    0  501  0.00000000000E+00 -0.00000000000E+00 -0.48974307672E+03  0.48974307675E+03  0.50400000000E-02 0. -1.
          2    1    1    2    0  502 -0.34931434326E+02 -0.11550517864E+02 -0.29584834530E+03  0.29812725973E+03  0.25500000000E-02 0. -1.
         -2    1    1    2  502    0  0.34931434326E+02  0.11550517864E+02 -0.19099965706E+03  0.19451089577E+03  0.25500000000E-02 0. -1.
<mgrwt>
<rscale>  0 0.75308531E+02</rscale>
<asrwt>0</asrwt>
<pdfrwt beam="2">  1        1 0.75345023E-01 0.75308531E+02</pdfrwt>
<pdfrwt beam="1">  1       -1 0.44539678E-03 0.75308531E+02</pdfrwt>
<totfact> 0.22947566E+05</totfact>
</mgrwt>
</event>
<event>
 4    1  0.1893769E-002  0.5343645E+02  0.7818608E-02  0.1427641E+00
          1   -1    0    0    0  501  0.00000000000E+00  0.00000000000E+00  0.53854902817E+03  0.53854902819E+03  0.50400000000E-02 0. -1.
         -1   -1    0    0  501    0 -0.00000000000E+00 -0.00000000000E+00 -0.13255261953E+01  0.13255357770E+01  0.50400000000E-02 0. -1.
          2    1    1    2    0  502  0.20713322323E+02 -0.16578583238E+02  0.30051630525E+03  0.30168516847E+03  0.25500000000E-02 0. -1.
         -2    1    1    2  502    0 -0.20713322323E+02  0.16578583238E+02  0.23670719672E+03  0.23818939550E+03  0.25500000000E-02 0. -1.
<mgrwt>
<rscale>  0 0.53436446E+02</rscale>
<asrwt>0</asrwt>
<pdfrwt beam="1">  1        1 0.82853720E-01 0.53436446E+02</pdfrwt>
<pdfrwt beam="2">  1       -1 0.20392779E-03 0.53436446E+02</pdfrwt>
<totfact> 0.55616808E+05</totfact>
</mgrwt>
</event>
<event>
 4    1  0.1893769E-002  0.6183322E+02  0.7818608E-02  0.1390296E+00
         -1   -1    0    0  501    0 -0.00000000000E+00  0.00000000000E+00  0.21924844311E+03  0.21924844317E+03  0.50400000000E-02 0.  1.
          1   -1    0    0    0  501  0.00000000000E+00 -0.00000000000E+00 -0.43596037570E+01  0.43596066703E+01  0.50400000000E-02 0.  1.
          2    1    1    2    0  502  0.21827244382E+02 -0.21895297214E+02  0.10767383697E+03  0.11202449648E+03  0.25500000000E-02 0. -1.
         -2    1    1    2  502    0 -0.21827244382E+02  0.21895297214E+02  0.10721500239E+03  0.11158355336E+03  0.25500000000E-02 0. -1.
<mgrwt>
<rscale>  0 0.61833217E+02</rscale>
<asrwt>0</asrwt>
<pdfrwt beam="2">  1        1 0.67070834E-03 0.61833217E+02</pdfrwt>
<pdfrwt beam="1">  1       -1 0.33730538E-01 0.61833217E+02</pdfrwt>
<totfact> 0.18338539E+05</totfact>
</mgrwt>
</event>
<event>
 4    1  0.1893769E-002  0.5075121E+02  0.7818608E-02  0.1441331E+00
         -1   -1    0    0  501    0 -0.00000000000E+00  0.00000000000E+00  0.68954237049E+00  0.68956078942E+00  0.50400000000E-02 0. -1.
          1   -1    0    0    0  501  0.00000000000E+00 -0.00000000000E+00 -0.93382611324E+03  0.93382611326E+03  0.50400000000E-02 0. -1.
          2    1    1    2    0  502 -0.64277085624E+01 -0.19104791731E+02 -0.18272730667E+03  0.18383573405E+03  0.25500000000E-02 0.  1.
         -2    1    1    2  502    0  0.64277085624E+01  0.19104791731E+02 -0.75040926421E+03  0.75067994000E+03  0.25500000000E-02 0.  1.
<mgrwt>
<rscale>  0 0.50751208E+02</rscale>
<asrwt>0</asrwt>
<pdfrwt beam="2">  1        1 0.14366455E+00 0.50751208E+02</pdfrwt>
<pdfrwt beam="1">  1       -1 0.10608561E-03 0.50751208E+02</pdfrwt>
<totfact> 0.62132948E+05</totfact>
</mgrwt>
</event>
<event>
 4    1  0.1893769E-002  0.1077979E+03  0.7818608E-02  0.1264703E+00
         -1   -1    0    0  501    0 -0.00000000000E+00  0.00000000000E+00  0.24662151100E+02  0.24662151615E+02  0.50400000000E-02 0. -1.
          1   -1    0    0    0  501  0.00000000000E+00 -0.00000000000E+00 -0.11779575803E+03  0.11779575814E+03  0.50400000000E-02 0. -1.
          2    1    1    2    0  502 -0.52204416678E+02 -0.12968013084E+02 -0.51072871302E+02  0.74174852030E+02  0.25500000000E-02 0.  1.
         -2    1    1    2  502    0  0.52204416678E+02  0.12968013084E+02 -0.42060735629E+02  0.68283057725E+02  0.25500000000E-02 0.  1.
<mgrwt>
<rscale>  0 0.10779790E+03</rscale>
<asrwt>0</asrwt>
<pdfrwt beam="2">  1        1 0.18122424E-01 0.10779790E+03</pdfrwt>
<pdfrwt beam="1">  1       -1 0.37941772E-02 0.10779790E+03</pdfrwt>
<totfact> 0.67831620E+04</totfact>
</mgrwt>
</event>
<event>
 4    1  0.1893769E-002  0.9509018E+02  0.7818608E-02  0.1290973E+00
          1   -1    0    0    0  501  0.00000000000E+00  0.00000000000E+00  0.11112376645E+03  0.11112376657E+03  0.50400000000E-02 0.  1.
         -1   -1    0    0  501    0 -0.00000000000E+00 -0.00000000000E+00 -0.20342504545E+02  0.20342505169E+02  0.50400000000E-02 0.  1.
          2    1    1    2    0  502  0.13759898779E+01 -0.45294320214E+02  0.65285179021E+02  0.79470896548E+02  0.25500000000E-02 0.  1.
         -2    1    1    2  502    0 -0.13759898779E+01  0.45294320214E+02  0.25496082885E+02  0.51995375187E+02  0.25500000000E-02 0.  1.
<mgrwt>
<rscale>  0 0.95090184E+02</rscale>
<asrwt>0</asrwt>
<pdfrwt beam="1">  1        1 0.17095964E-01 0.95090184E+02</pdfrwt>
<pdfrwt beam="2">  1       -1 0.31296162E-02 0.95090184E+02</pdfrwt>
<totfact> 0.94809164E+04</totfact>
</mgrwt>
</event>
<event>
 4    1  0.1893769E-002  0.6914404E+02  0.7818608E-02  0.1363028E+00
          1   -1    0    0    0  501  0.00000000000E+00  0.00000000000E+00  0.23300821406E+03  0.23300821411E+03  0.50400000000E-02 0. -1.
         -1   -1    0    0  501    0 -0.00000000000E+00 -0.00000000000E+00 -0.51295375181E+01  0.51295399941E+01  0.50400000000E-02 0. -1.
          2    1    1    2    0  502  0.27559604189E+02 -0.19126314518E+02  0.14272926423E+03  0.14661852054E+03  0.25500000000E-02 0. -1.
         -2    1    1    2  502    0 -0.27559604189E+02  0.19126314518E+02  0.85149412311E+02  0.91519233572E+02  0.25500000000E-02 0. -1.
<mgrwt>
<rscale>  0 0.69144043E+02</rscale>
<asrwt>0</asrwt>
<pdfrwt beam="1">  1        1 0.35847409E-01 0.69144043E+02</pdfrwt>
<pdfrwt beam="2">  1       -1 0.78916000E-03 0.69144043E+02</pdfrwt>
<totfact> 0.25276752E+05</totfact>
</mgrwt>
</event>
<event>
 4    1  0.1893769E-002  0.5968407E+02  0.7818608E-02  0.1399162E+00
          1   -1    0    0    0  501  0.00000000000E+00  0.00000000000E+00  0.15326285035E+04  0.15326285035E+04  0.50400000000E-02 0. -1.
         -1   -1    0    0  501    0 -0.00000000000E+00 -0.00000000000E+00 -0.58104765335E+00  0.58106951139E+00  0.50400000000E-02 0. -1.
          2    1    1    2    0  502 -0.64841542796E+01 -0.28565873008E+02  0.91245774992E+03  0.91292781684E+03  0.25500000000E-02 0. -1.
         -2    1    1    2  502    0  0.64841542796E+01  0.28565873008E+02  0.61958970588E+03  0.62028175614E+03  0.25500000000E-02 0. -1.
<mgrwt>
<rscale>  0 0.59684067E+02</rscale>
<asrwt>0</asrwt>
<pdfrwt beam="1">  1        1 0.23579223E+00 0.59684067E+02</pdfrwt>
<pdfrwt beam="2">  1       -1 0.89392406E-04 0.59684067E+02</pdfrwt>
<totfact> 0.32584908E+05</totfact>
</mgrwt>
</event>
<event>
 4    1  0.1893769E-002  0.4326844E+02  0.7818608E-02  0.1485450E+00
         -1   -1    0    0  501    0 -0.00000000000E+00  0.00000000000E+00  0.19447501261E+02  0.19447501914E+02  0.50400000000E-02 0.  1.
          1   -1    0    0    0  501  0.00000000000E+00 -0.00000000000E+00 -0.24066813093E+02  0.24066813621E+02  0.50400000000E-02 0.  1.
          2    1    1    2    0  502  0.20716221496E+02  0.39213510404E+01  0.25656306840E+01  0.21239616154E+02  0.25500000000E-02 0.  1.
         -2    1    1    2  502    0 -0.20716221496E+02 -0.39213510404E+01 -0.71849425158E+01  0.22274699381E+02  0.25500000000E-02 0.  1.
<mgrwt>
<rscale>  0 0.43268437E+02</rscale>
<asrwt>0</asrwt>
<pdfrwt beam="2">  1        1 0.37025867E-02 0.43268437E+02</pdfrwt>
<pdfrwt beam="1">  1       -1 0.29919233E-02 0.43268437E+02</pdfrwt>
<totfact> 0.63251541E+05</totfact>
</mgrwt>
</event>
<event>
 4    1  0.1893769E-002  0.1016799E+03  0.7818608E-02  0.1276802E+00
          1   -1    0    0    0  501  0.00000000000E+00  0.00000000000E+00  0.11739079338E+03  0.11739079348E+03  0.50400000000E-02 0. -1.
         -1   -1    0    0  501    0 -0.00000000000E+00 -0.00000000000E+00 -0.22017922419E+02  0.22017922996E+02  0.50400000000E-02 0. -1.
          2    1    1    2    0  502 -0.31030267977E+02 -0.35872166954E+02  0.72781286316E+02  0.86872351971E+02  0.25500000000E-02 0.  1.
         -2    1    1    2  502    0  0.31030267977E+02  0.35872166954E+02  0.22591584641E+02  0.52536364509E+02  0.25500000000E-02 0.  1.
<mgrwt>
<rscale>  0 0.10167992E+03</rscale>
<asrwt>0</asrwt>
<pdfrwt beam="1">  1        1 0.18060122E-01 0.10167992E+03</pdfrwt>
<pdfrwt beam="2">  1       -1 0.33873728E-02 0.10167992E+03</pdfrwt>
<totfact> 0.79661507E+04</totfact>
</mgrwt>
</event>
<event>
 4    1  0.1893769E-002  0.5517036E+02  0.7818608E-02  0.1419295E+00
          1   -1    0    0    0  501  0.00000000000E+00  0.00000000000E+00  0.13820514786E+03  0.13820514795E+03  0.50400000000E-02 0.  1.
         -1   -1    0    0  501    0 -0.00000000000E+00 -0.00000000000E+00 -0.55058865555E+01  0.55058888622E+01  0.50400000000E-02 0.  1.
          2    1    1    2    0  502  0.26806894913E+02  0.59662291954E+01  0.59588764760E+02  0.65612699974E+02  0.25500000000E-02 0. -1.
         -2    1    1    2  502    0 -0.26806894913E+02 -0.59662291954E+01  0.73110496540E+02  0.78098336836E+02  0.25500000000E-02 0. -1.
<mgrwt>
<rscale>  0 0.55170356E+02</rscale>
<asrwt>0</asrwt>
<pdfrwt beam="1">  1        1 0.21262329E-01 0.55170356E+02</pdfrwt>
<pdfrwt beam="2">  1       -1 0.84705971E-03 0.55170356E+02</pdfrwt>
<totfact> 0.41243447E+05</totfact>
</mgrwt>
</event>
<event>
 4    1  0.1893769E-002  0.4428230E+02  0.7818608E-02  0.1478872E+00
         -1   -1    0    0  501    0 -0.00000000000E+00  0.00000000000E+00  0.94572292309E+02  0.94572292443E+02  0.50400000000E-02 0.  1.
          1   -1    0    0    0  501  0.00000000000E+00 -0.00000000000E+00 -0.51836574665E+01  0.51836599166E+01  0.50400000000E-02 0.  1.
          2    1    1    2    0  502  0.41088332901E+01 -0.21068716549E+02  0.56920872915E+02  0.60833864812E+02  0.25500000000E-02 0.  1.
         -2    1    1    2  502    0 -0.41088332901E+01  0.21068716549E+02  0.32467761928E+02  0.38922087548E+02  0.25500000000E-02 0.  1.
<mgrwt>
<rscale>  0 0.44282299E+02</rscale>
<asrwt>0</asrwt>
<pdfrwt beam="2">  1        1 0.79748600E-03 0.44282299E+02</pdfrwt>
<pdfrwt beam="1">  1       -1 0.14549583E-01 0.44282299E+02</pdfrwt>
<totfact> 0.50624536E+05</totfact>
</mgrwt>
</event>
<event>
 4    1  0.1893769E-002  0.4089251E+02  0.7818608E-02  0.1501744E+00
         -1   -1    0    0  501    0 -0.00000000000E+00  0.00000000000E+00  0.62146987072E+02  0.62146987277E+02  0.50400000000E-02 0. -1.
          1   -1    0    0    0  501  0.00000000000E+00 -0.00000000000E+00 -0.67267822877E+01  0.67267841758E+01  0.50400000000E-02 0. -1.
          2    1    1    2    0  502  0.20372311354E+02  0.17368587570E+01  0.27776820986E+02  0.34490571738E+02  0.25500000000E-02 0. -1.
         -2    1    1    2  502    0 -0.20372311354E+02 -0.17368587570E+01  0.27643383799E+02  0.34383199714E+02  0.25500000000E-02 0. -1.
<mgrwt>
<rscale>  0 0.40892509E+02</rscale>
<asrwt>0</asrwt>
<pdfrwt beam="2">  1        1 0.10348898E-02 0.40892509E+02</pdfrwt>
<pdfrwt beam="1">  1       -1 0.95610747E-02 0.40892509E+02</pdfrwt>
<totfact> 0.65098330E+05</totfact>
</mgrwt>
</event>
<event>
 4    1  0.1893769E-002  0.4536533E+02  0.7818608E-02  0.1472074E+00
          1   -1    0    0    0  501  0.00000000000E+00  0.00000000000E+00  0.28537506685E+03  0.28537506689E+03  0.50400000000E-02 0.  1.
         -1   -1    0    0  501    0 -0.00000000000E+00 -0.00000000000E+00 -0.18028981915E+01  0.18029052361E+01  0.50400000000E-02 0.  1.
          2    1    1    2    0  502 -0.87271695888E+01 -0.20075824876E+02  0.17939756260E+03  0.18072821503E+03  0.25500000000E-02 0. -1.
         -2    1    1    2  502    0  0.87271695888E+01  0.20075824876E+02  0.10417460606E+03  0.10644975710E+03  0.25500000000E-02 0. -1.
<mgrwt>
<rscale>  0 0.45365326E+02</rscale>
<asrwt>0</asrwt>
<pdfrwt beam="1">  1        1 0.43903812E-01 0.45365326E+02</pdfrwt>
<pdfrwt beam="2">  1       -1 0.27736978E-03 0.45365326E+02</pdfrwt>
<totfact> 0.76158129E+05</totfact>
</mgrwt>
</event>
<event>
 4    1  0.1893769E-002  0.1315730E+03  0.7818608E-02  0.1225140E+00
          1   -1    0    0    0  501  0.00000000000E+00  0.00000000000E+00  0.45089535589E+01  0.45089563757E+01  0.50400000000E-02 0. -1.
         -1   -1    0    0  501    0 -0.00000000000E+00 -0.00000000000E+00 -0.95983728224E+03  0.95983728225E+03  0.50400000000E-02 0. -1.
          2    1    1    2    0  502  0.22454047545E+02 -0.12525980265E+01 -0.93078895131E+03  0.93106059156E+03  0.25500000000E-02 0. -1.
         -2    1    1    2  502    0 -0.22454047545E+02  0.12525980265E+01 -0.24539377363E+02  0.33285647070E+02  0.25500000000E-02 0. -1.
<mgrwt>
<rscale>  0 0.13157299E+03</rscale>
<asrwt>0</asrwt>
<pdfrwt beam="1">  1        1 0.69368614E-03 0.13157299E+03</pdfrwt>
<pdfrwt beam="2">  1       -1 0.14766711E+00 0.13157299E+03</pdfrwt>
<totfact> 0.10114828E+04</totfact>
</mgrwt>
</event>
<event>
 4    1  0.1893769E-002  0.5295940E+02  0.7818608E-02  0.1430003E+00
          1   -1    0    0    0  501  0.00000000000E+00  0.00000000000E+00  0.26953831570E+03  0.26953831575E+03  0.50400000000E-02 0. -1.
         -1   -1    0    0  501    0 -0.00000000000E+00 -0.00000000000E+00 -0.26013878975E+01  0.26013927798E+01  0.50400000000E-02 0. -1.
          2    1    1    2    0  502 -0.20252473370E+02  0.99468542852E+00  0.45957071253E+02  0.50231508850E+02  0.25500000000E-02 0.  1.
         -2    1    1    2  502    0  0.20252473370E+02 -0.99468542852E+00  0.22097985655E+03  0.22190819968E+03  0.25500000000E-02 0.  1.
<mgrwt>
<rscale>  0 0.52959395E+02</rscale>
<asrwt>0</asrwt>
<pdfrwt beam="1">  1        1 0.41467427E-01 0.52959395E+02</pdfrwt>
<pdfrwt beam="2">  1       -1 0.40021396E-03 0.52959395E+02</pdfrwt>
<totfact> 0.51287057E+05</totfact>
</mgrwt>
</event>
<event>
 4    1  0.1893769E-002  0.4513423E+02  0.7818608E-02  0.1473505E+00
         -1   -1    0    0  501    0 -0.00000000000E+00  0.00000000000E+00  0.35646007525E+01  0.35646043155E+01  0.50400000000E-02 0.  1.
          1   -1    0    0    0  501  0.00000000000E+00 -0.00000000000E+00 -0.14286998851E+03  0.14286998860E+03  0.50400000000E-02 0.  1.
          2    1    1    2    0  502 -0.11677367582E+02  0.18742234995E+02 -0.84746221905E+02  0.87575992258E+02  0.25500000000E-02 0. -1.
         -2    1    1    2  502    0  0.11677367582E+02 -0.18742234995E+02 -0.54559165854E+02  0.58858600658E+02  0.25500000000E-02 0. -1.
<mgrwt>
<rscale>  0 0.45134233E+02</rscale>
<asrwt>0</asrwt>
<pdfrwt beam="2">  1        1 0.21979994E-01 0.45134233E+02</pdfrwt>
<pdfrwt beam="1">  1       -1 0.54840051E-03 0.45134233E+02</pdfrwt>
<totfact> 0.68663528E+05</totfact>
</mgrwt>
</event>
<event>
 4    1  0.1893769E-002  0.1307126E+03  0.7818608E-02  0.1226402E+00
         -1   -1    0    0  501    0 -0.00000000000E+00  0.00000000000E+00  0.18464236032E+01  0.18464304818E+01  0.50400000000E-02 0.  1.
          1   -1    0    0    0  501  0.00000000000E+00 -0.00000000000E+00 -0.23133570986E+04  0.23133570986E+04  0.50400000000E-02 0.  1.
          2    1    1    2    0  502  0.60293971206E+02  0.15093035025E+02 -0.79786323372E+03  0.80028051482E+03  0.25500000000E-02 0. -1.
         -2    1    1    2  502    0 -0.60293971206E+02 -0.15093035025E+02 -0.15136474413E+04  0.15149230143E+04  0.25500000000E-02 0. -1.
<mgrwt>
<rscale>  0 0.13071259E+03</rscale>
<asrwt>0</asrwt>
<pdfrwt beam="2">  1        1 0.35589877E+00 0.13071259E+03</pdfrwt>
<pdfrwt beam="1">  1       -1 0.28406755E-03 0.13071259E+03</pdfrwt>
<totfact> 0.23341824E+04</totfact>
</mgrwt>
</event>
<event>
 4    1  0.1893769E-002  0.5277561E+02  0.7818608E-02  0.1430921E+00
          1   -1    0    0    0  501  0.00000000000E+00  0.00000000000E+00  0.71937153182E+03  0.71937153184E+03  0.50400000000E-02 0. -1.
         -1   -1    0    0  501    0 -0.00000000000E+00 -0.00000000000E+00 -0.96794411082E+00  0.96795723215E+00  0.50400000000E-02 0. -1.
          2    1    1    2    0  502  0.13323999512E+02  0.20928874160E+02  0.48186872155E+03  0.48250700673E+03  0.25500000000E-02 0.  1.
         -2    1    1    2  502    0 -0.13323999512E+02 -0.20928874160E+02  0.23653486617E+03  0.23783248234E+03  0.25500000000E-02 0.  1.
<mgrwt>
<rscale>  0 0.52775607E+02</rscale>
<asrwt>0</asrwt>
<pdfrwt beam="1">  1        1 0.11067266E+00 0.52775607E+02</pdfrwt>
<pdfrwt beam="2">  1       -1 0.14891534E-03 0.52775607E+02</pdfrwt>
<totfact> 0.57977639E+05</totfact>
</mgrwt>
</event>
<event>
 4    1  0.1893769E-002  0.6938312E+02  0.7818608E-02  0.1362203E+00
         -1   -1    0    0  501    0 -0.00000000000E+00  0.00000000000E+00  0.95164891541E+02  0.95164891674E+02  0.50400000000E-02 0.  1.
          1   -1    0    0    0  501  0.00000000000E+00 -0.00000000000E+00 -0.12646516397E+02  0.12646517402E+02  0.50400000000E-02 0.  1.
          2    1    1    2    0  502 -0.33634687968E+02  0.52937922509E+01  0.51588294749E+02  0.61811557437E+02  0.25500000000E-02 0. -1.
         -2    1    1    2  502    0  0.33634687968E+02 -0.52937922509E+01  0.30930080394E+02  0.45999851639E+02  0.25500000000E-02 0. -1.
<mgrwt>
<rscale>  0 0.69383123E+02</rscale>
<asrwt>0</asrwt>
<pdfrwt beam="2">  1        1 0.19456179E-02 0.69383123E+02</pdfrwt>
<pdfrwt beam="1">  1       -1 0.14640753E-01 0.69383123E+02</pdfrwt>
<totfact> 0.16505595E+05</totfact>
</mgrwt>
</event>
<event>
 4    1  0.1893769E-002  0.6907139E+02  0.7818608E-02  0.1363280E+00
          1   -1    0    0    0  501  0.00000000000E+00  0.00000000000E+00  0.15364897630E+03  0.15364897638E+03  0.50400000000E-02 0.  1.
         -1   -1    0    0  501    0 -0.00000000000E+00 -0.00000000000E+00 -0.77625906034E+01  0.77625922396E+01  0.50400000000E-02 0.  1.
          2    1    1    2    0  502 -0.21554855047E+02 -0.21130336206E+02  0.33727351594E+02  0.45261872877E+02  0.25500000000E-02 0. -1.
         -2    1    1    2  502    0  0.21554855047E+02  0.21130336206E+02  0.11215903410E+03  0.11614969574E+03  0.25500000000E-02 0. -1.
<mgrwt>
<rscale>  0 0.69071390E+02</rscale>
<asrwt>0</asrwt>
<pdfrwt beam="1">  1        1 0.23638303E-01 0.69071390E+02</pdfrwt>
<pdfrwt beam="2">  1       -1 0.11942449E-02 0.69071390E+02</pdfrwt>
<totfact> 0.23519183E+05</totfact>
</mgrwt>
</event>
<event>
 4    1  0.1893769E-002  0.4334846E+02  0.7818608E-02  0.1484923E+00
         -1   -1    0    0  501    0 -0.00000000000E+00  0.00000000000E+00  0.13002678105E+03  0.13002678115E+03  0.50400000000E-02 0.  1.
          1   -1    0    0    0  501  0.00000000000E+00 -0.00000000000E+00 -0.36128860870E+01  0.36128896025E+01  0.50400000000E-02 0.  1.
          2    1    1    2    0  502  0.97357563084E+01  0.18779999015E+02  0.48648898710E+02  0.53048927097E+02  0.25500000000E-02 0. -1.
         -2    1    1    2  502    0 -0.97357563084E+01 -0.18779999015E+02  0.77764996253E+02  0.80590743653E+02  0.25500000000E-02 0. -1.
<mgrwt>
<rscale>  0 0.43348457E+02</rscale>
<asrwt>0</asrwt>
<pdfrwt beam="2">  1        1 0.55582900E-03 0.43348457E+02</pdfrwt>
<pdfrwt beam="1">  1       -1 0.20004117E-01 0.43348457E+02</pdfrwt>
<totfact> 0.50399182E+05</totfact>
</mgrwt>
</event>
<event>
 4    1  0.1893769E-002  0.6251545E+02  0.7818608E-02  0.1387569E+00
         -1   -1    0    0  501    0 -0.00000000000E+00  0.00000000000E+00  0.14414802108E+02  0.14414802990E+02  0.50400000000E-02 0. -1.
          1   -1    0    0    0  501  0.00000000000E+00 -0.00000000000E+00 -0.67780703973E+02  0.67780704161E+02  0.50400000000E-02 0. -1.
          2    1    1    2    0  502  0.25888464651E+02 -0.34705563899E+01 -0.41085791006E+01  0.26441213898E+02  0.25500000000E-02 0.  1.
         -2    1    1    2  502    0 -0.25888464651E+02  0.34705563899E+01 -0.49257322764E+02  0.55754293252E+02  0.25500000000E-02 0.  1.
<mgrwt>
<rscale>  0 0.62515453E+02</rscale>
<asrwt>0</asrwt>
<pdfrwt beam="2">  1        1 0.10427801E-01 0.62515453E+02</pdfrwt>
<pdfrwt beam="1">  1       -1 0.22176620E-02 0.62515453E+02</pdfrwt>
<totfact> 0.27067759E+05</totfact>
</mgrwt>
</event>
<event>
 4    1  0.1893769E-002  0.5982914E+02  0.7818608E-02  0.1398550E+00
          1   -1    0    0    0  501  0.00000000000E+00  0.00000000000E+00  0.62375765904E+02  0.62375766108E+02  0.50400000000E-02 0.  1.
         -1   -1    0    0  501    0 -0.00000000000E+00 -0.00000000000E+00 -0.14346618727E+02  0.14346619612E+02  0.50400000000E-02 0.  1.
          2    1    1    2    0  502  0.13150627683E+02  0.21442005167E+02  0.32505532812E+01  0.25362663448E+02  0.25500000000E-02 0.  1.
         -2    1    1    2  502    0 -0.13150627683E+02 -0.21442005167E+02  0.44778593896E+02  0.51359722272E+02  0.25500000000E-02 0.  1.
<mgrwt>
<rscale>  0 0.59829136E+02</rscale>
<asrwt>0</asrwt>
<pdfrwt beam="1">  1        1 0.95962715E-02 0.59829136E+02</pdfrwt>
<pdfrwt beam="2">  1       -1 0.22071723E-02 0.59829136E+02</pdfrwt>
<totfact> 0.30052207E+05</totfact>
</mgrwt>
</event>
<event>
 4    1  0.1893769E-002  0.7295713E+02  0.7818608E-02  0.1350316E+00
         -1   -1    0    0  501    0 -0.00000000000E+00  0.00000000000E+00  0.71736542862E+03  0.71736542864E+03  0.50400000000E-02 0.  1.
          1   -1    0    0    0  501  0.00000000000E+00 -0.00000000000E+00 -0.18549587460E+01  0.18549655929E+01  0.50400000000E-02 0.  1.
          2    1    1    2    0  502 -0.12784082640E+02  0.29052583263E+02  0.53498235235E+03  0.53592313134E+03  0.25500000000E-02 0.  1.
         -2    1    1    2  502    0  0.12784082640E+02 -0.29052583263E+02  0.18052811752E+03  0.18329726289E+03  0.25500000000E-02 0.  1.
<mgrwt>
<rscale>  0 0.72957131E+02</rscale>
<asrwt>0</asrwt>
<pdfrwt beam="2">  1        1 0.28537908E-03 0.72957131E+02</pdfrwt>
<pdfrwt beam="1">  1       -1 0.11036380E+00 0.72957131E+02</pdfrwt>
<totfact> 0.64440140E+04</totfact>
</mgrwt>
</event>
<event>
 4    1  0.1893769E-002  0.4642814E+02  0.7818608E-02  0.1465618E+00
          1   -1    0    0    0  501  0.00000000000E+00  0.00000000000E+00  0.66012615650E+03  0.66012615652E+03  0.50400000000E-02 0.  1.
         -1   -1    0    0  501    0 -0.00000000000E+00 -0.00000000000E+00 -0.81634081390E+00  0.81635637196E+00  0.50400000000E-02 0.  1.
          2    1    1    2    0  502  0.99910688487E+01 -0.20537779776E+02  0.38881703470E+03  0.38948723770E+03  0.25500000000E-02 0.  1.
         -2    1    1    2  502    0 -0.99910688487E+01  0.20537779776E+02  0.27049278099E+03  0.27145527519E+03  0.25500000000E-02 0.  1.
<mgrwt>
<rscale>  0 0.46428141E+02</rscale>
<asrwt>0</asrwt>
<pdfrwt beam="1">  1        1 0.10155813E+00 0.46428141E+02</pdfrwt>
<pdfrwt beam="2">  1       -1 0.12559178E-03 0.46428141E+02</pdfrwt>
<totfact> 0.79680736E+05</totfact>
</mgrwt>
</event>
<event>
 4    1  0.1893769E-002  0.4363431E+02  0.7818608E-02  0.1483052E+00
          1   -1    0    0    0  501  0.00000000000E+00  0.00000000000E+00  0.12035130431E+01  0.12035235962E+01  0.50400000000E-02 0. -1.
         -1   -1    0    0  501    0 -0.00000000000E+00 -0.00000000000E+00 -0.39549722845E+03  0.39549722848E+03  0.50400000000E-02 0. -1.
          2    1    1    2    0  502  0.20801485126E+02 -0.55301567555E+01 -0.16474268806E+03  0.16614282318E+03  0.25500000000E-02 0. -1.
         -2    1    1    2  502    0 -0.20801485126E+02  0.55301567555E+01 -0.22955102735E+03  0.23055792890E+03  0.25500000000E-02 0. -1.
<mgrwt>
<rscale>  0 0.43634306E+02</rscale>
<asrwt>0</asrwt>
<pdfrwt beam="1">  1        1 0.18515698E-03 0.43634306E+02</pdfrwt>
<pdfrwt beam="2">  1       -1 0.60845625E-01 0.43634306E+02</pdfrwt>
<totfact> 0.34714975E+05</totfact>
</mgrwt>
</event>
<event>
 4    1  0.1893769E-002  0.1222833E+03  0.7818608E-02  0.1239377E+00
         -1   -1    0    0  501    0 -0.00000000000E+00  0.00000000000E+00  0.10886150785E+02  0.10886151951E+02  0.50400000000E-02 0.  1.
          1   -1    0    0    0  501  0.00000000000E+00 -0.00000000000E+00 -0.34339995116E+03  0.34339995119E+03  0.50400000000E-02 0.  1.
          2    1    1    2    0  502  0.60249337523E+02  0.67258485897E+01 -0.18926850603E+03  0.19874050189E+03  0.25500000000E-02 0.  1.
         -2    1    1    2  502    0 -0.60249337523E+02 -0.67258485897E+01 -0.14324529434E+03  0.15554560125E+03  0.25500000000E-02 0.  1.
<mgrwt>
<rscale>  0 0.12228334E+03</rscale>
<asrwt>0</asrwt>
<pdfrwt beam="2">  1        1 0.52830753E-01 0.12228334E+03</pdfrwt>
<pdfrwt beam="1">  1       -1 0.16747928E-02 0.12228334E+03</pdfrwt>
<totfact> 0.59453826E+04</totfact>
</mgrwt>
</event>
<event>
 4    1  0.1893769E-002  0.6562850E+02  0.7818608E-02  0.1375623E+00
          1   -1    0    0    0  501  0.00000000000E+00  0.00000000000E+00  0.42709542611E+02  0.42709542908E+02  0.50400000000E-02 0. -1.
         -1   -1    0    0  501    0 -0.00000000000E+00 -0.00000000000E+00 -0.25211579042E+02  0.25211579546E+02  0.50400000000E-02 0. -1.
          2    1    1    2    0  502  0.29882839819E+02  0.48673537717E+01 -0.43460856526E+01  0.30586986047E+02  0.25500000000E-02 0. -1.
         -2    1    1    2  502    0 -0.29882839819E+02 -0.48673537717E+01  0.21844049221E+02  0.37334136408E+02  0.25500000000E-02 0. -1.
<mgrwt>
<rscale>  0 0.65628501E+02</rscale>
<asrwt>0</asrwt>
<pdfrwt beam="1">  1        1 0.65706988E-02 0.65628501E+02</pdfrwt>
<pdfrwt beam="2">  1       -1 0.38787046E-02 0.65628501E+02</pdfrwt>
<totfact> 0.22543761E+05</totfact>
</mgrwt>
</event>
<event>
 4    1  0.1893769E-002  0.4808851E+02  0.7818608E-02  0.1455933E+00
          1   -1    0    0    0  501  0.00000000000E+00  0.00000000000E+00  0.14517591880E+02  0.14517592754E+02  0.50400000000E-02 0.  1.
         -1   -1    0    0  501    0 -0.00000000000E+00 -0.00000000000E+00 -0.39822461967E+02  0.39822462286E+02  0.50400000000E-02 0.  1.
          2    1    1    2    0  502 -0.99574970999E+01  0.18285193259E+02  0.93702691490E+00  0.20841738578E+02  0.25500000000E-02 0. -1.
         -2    1    1    2  502    0  0.99574970999E+01 -0.18285193259E+02 -0.26241897003E+02  0.33498316463E+02  0.25500000000E-02 0. -1.
<mgrwt>
<rscale>  0 0.48088514E+02</rscale>
<asrwt>0</asrwt>
<pdfrwt beam="1">  1        1 0.22334758E-02 0.48088514E+02</pdfrwt>
<pdfrwt beam="2">  1       -1 0.61265327E-02 0.48088514E+02</pdfrwt>
<totfact> 0.46044309E+05</totfact>
</mgrwt>
</event>
<event>
 4    1  0.1893769E-002  0.8840614E+02  0.7818608E-02  0.1306758E+00
          1   -1    0    0    0  501  0.00000000000E+00  0.00000000000E+00  0.52125431065E+02  0.52125431308E+02  0.50400000000E-02 0.  1.
         -1   -1    0    0  501    0 -0.00000000000E+00 -0.00000000000E+00 -0.37484799414E+02  0.37484799753E+02  0.50400000000E-02 0.  1.
          2    1    1    2    0  502  0.11144722549E+02  0.39205094981E+02 -0.10020202570E+02  0.41971999943E+02  0.25500000000E-02 0.  1.
         -2    1    1    2  502    0 -0.11144722549E+02 -0.39205094981E+02  0.24660834220E+02  0.47638231118E+02  0.25500000000E-02 0.  1.
<mgrwt>
<rscale>  0 0.88406139E+02</rscale>
<asrwt>0</asrwt>
<pdfrwt beam="1">  1        1 0.80192972E-02 0.88406139E+02</pdfrwt>
<pdfrwt beam="2">  1       -1 0.57668922E-02 0.88406139E+02</pdfrwt>
<totfact> 0.10280563E+05</totfact>
</mgrwt>
</event>
<event>
 4    1  0.1893769E-002  0.6306297E+02  0.7818608E-02  0.1385410E+00
         -1   -1    0    0  501    0 -0.00000000000E+00  0.00000000000E+00  0.12689544667E+01  0.12689644756E+01  0.50400000000E-02 0. -1.
          1   -1    0    0    0  501  0.00000000000E+00 -0.00000000000E+00 -0.78350378479E+03  0.78350378481E+03  0.50400000000E-02 0. -1.
          2    1    1    2    0  502 -0.90254854131E+01 -0.22143638732E+02 -0.64688714514E+03  0.64732895708E+03  0.25500000000E-02 0. -1.
         -2    1    1    2  502    0  0.90254854131E+01  0.22143638732E+02 -0.13534768518E+03  0.13744379220E+03  0.25500000000E-02 0. -1.
<mgrwt>
<rscale>  0 0.63062970E+02</rscale>
<asrwt>0</asrwt>
<pdfrwt beam="2">  1        1 0.12053866E+00 0.63062970E+02</pdfrwt>
<pdfrwt beam="1">  1       -1 0.19522516E-03 0.63062970E+02</pdfrwt>
<totfact> 0.36849638E+05</totfact>
</mgrwt>
</event>
<event>
 4    1  0.1893769E-002  0.5155278E+02  0.7818608E-02  0.1437142E+00
         -1   -1    0    0  501    0 -0.00000000000E+00  0.00000000000E+00  0.11872045259E+01  0.11872152239E+01  0.50400000000E-02 0.  1.
          1   -1    0    0    0  501  0.00000000000E+00 -0.00000000000E+00 -0.55965030452E+03  0.55965030454E+03  0.50400000000E-02 0.  1.
          2    1    1    2    0  502  0.22547144407E+02  0.12484781623E+02 -0.28383270894E+03  0.28500043888E+03  0.25500000000E-02 0. -1.
         -2    1    1    2  502    0 -0.22547144407E+02 -0.12484781623E+02 -0.27463039106E+03  0.27583708088E+03  0.25500000000E-02 0. -1.
<mgrwt>
<rscale>  0 0.51552784E+02</rscale>
<asrwt>0</asrwt>
<pdfrwt beam="2">  1        1 0.86099837E-01 0.51552784E+02</pdfrwt>
<pdfrwt beam="1">  1       -1 0.18264812E-03 0.51552784E+02</pdfrwt>
<totfact> 0.61022873E+05</totfact>
</mgrwt>
</event>
<event>
 4    1  0.1893769E-002  0.8265332E+02  0.7818608E-02  0.1321686E+00
         -1   -1    0    0  501    0 -0.00000000000E+00  0.00000000000E+00  0.34756048491E+03  0.34756048495E+03  0.50400000000E-02 0. -1.
          1   -1    0    0    0  501  0.00000000000E+00 -0.00000000000E+00 -0.49139423188E+01  0.49139449034E+01  0.50400000000E-02 0. -1.
          2    1    1    2    0  502  0.76998257915E+00  0.41037033233E+02  0.19189106453E+03  0.19623152555E+03  0.25500000000E-02 0. -1.
         -2    1    1    2  502    0 -0.76998257915E+00 -0.41037033233E+02  0.15075547807E+03  0.15624290430E+03  0.25500000000E-02 0. -1.
<mgrwt>
<rscale>  0 0.82653315E+02</rscale>
<asrwt>0</asrwt>
<pdfrwt beam="2">  1        1 0.75599105E-03 0.82653315E+02</pdfrwt>
<pdfrwt beam="1">  1       -1 0.53470864E-01 0.82653315E+02</pdfrwt>
<totfact> 0.73577389E+04</totfact>
</mgrwt>
</event>
<event>
 4    1  0.1893769E-002  0.4636333E+02  0.7818608E-02  0.1466006E+00
          1   -1    0    0    0  501  0.00000000000E+00  0.00000000000E+00  0.23268294794E+04  0.23268294794E+04  0.50400000000E-02 0.  1.
         -1   -1    0    0  501    0 -0.00000000000E+00 -0.00000000000E+00 -0.23092608371E+00  0.23098107658E+00  0.50400000000E-02 0.  1.
          2    1    1    2    0  502 -0.14774018502E+02  0.17607073507E+02  0.13147833834E+04  0.13149842683E+04  0.25500000000E-02 0. -1.
         -2    1    1    2  502    0  0.14774018502E+02 -0.17607073507E+02  0.10118151699E+04  0.10120761922E+04  0.25500000000E-02 0. -1.
<mgrwt>
<rscale>  0 0.46363331E+02</rscale>
<asrwt>0</asrwt>
<pdfrwt beam="1">  1        1 0.35797437E+00 0.46363331E+02</pdfrwt>
<pdfrwt beam="2">  1       -1 0.35531261E-04 0.46363331E+02</pdfrwt>
<totfact> 0.35089890E+05</totfact>
</mgrwt>
</event>
<event>
 4    1  0.1893769E-002  0.7494442E+02  0.7818608E-02  0.1344043E+00
          1   -1    0    0    0  501  0.00000000000E+00  0.00000000000E+00  0.15567078235E+03  0.15567078243E+03  0.50400000000E-02 0. -1.
         -1   -1    0    0  501    0 -0.00000000000E+00 -0.00000000000E+00 -0.90201020726E+01  0.90201034807E+01  0.50400000000E-02 0. -1.
          2    1    1    2    0  502  0.27619948105E+02 -0.21835722516E+02  0.10151055451E+03  0.10744325477E+03  0.25500000000E-02 0. -1.
         -2    1    1    2  502    0 -0.27619948105E+02  0.21835722516E+02  0.45140125764E+02  0.57247631144E+02  0.25500000000E-02 0. -1.
<mgrwt>
<rscale>  0 0.74944419E+02</rscale>
<asrwt>0</asrwt>
<pdfrwt beam="1">  1        1 0.23949352E-01 0.74944419E+02</pdfrwt>
<pdfrwt beam="2">  1       -1 0.13877081E-02 0.74944419E+02</pdfrwt>
<totfact> 0.19034808E+05</totfact>
</mgrwt>
</event>
<event>
 4    1  0.1893769E-002  0.4206655E+02  0.7818608E-02  0.1493532E+00
         -1   -1    0    0  501    0 -0.00000000000E+00  0.00000000000E+00  0.21811075757E+01  0.21811133988E+01  0.50400000000E-02 0.  1.
          1   -1    0    0    0  501  0.00000000000E+00 -0.00000000000E+00 -0.20283186886E+03  0.20283186892E+03  0.50400000000E-02 0.  1.
          2    1    1    2    0  502 -0.56243936183E+01 -0.19891331178E+02 -0.11926324213E+03  0.12104139700E+03  0.25500000000E-02 0.  1.
         -2    1    1    2  502    0  0.56243936183E+01  0.19891331178E+02 -0.81387519159E+02  0.83971585319E+02  0.25500000000E-02 0.  1.
<mgrwt>
<rscale>  0 0.42066553E+02</rscale>
<asrwt>0</asrwt>
<pdfrwt beam="2">  1        1 0.31204889E-01 0.42066553E+02</pdfrwt>
<pdfrwt beam="1">  1       -1 0.33555562E-03 0.42066553E+02</pdfrwt>
<totfact> 0.86440166E+05</totfact>
</mgrwt>
</event>
<event>
 4    1  0.1893769E-002  0.6201490E+02  0.7818608E-02  0.1389565E+00
         -1   -1    0    0  501    0 -0.00000000000E+00  0.00000000000E+00  0.13218513981E+02  0.13218514942E+02  0.50400000000E-02 0. -1.
          1   -1    0    0    0  501  0.00000000000E+00 -0.00000000000E+00 -0.72736008153E+02  0.72736008328E+02  0.50400000000E-02 0. -1.
          2    1    1    2    0  502 -0.68871294070E+01  0.28687558722E+02 -0.42984511386E+02  0.52135178167E+02  0.25500000000E-02 0.  1.
         -2    1    1    2  502    0  0.68871294070E+01 -0.28687558722E+02 -0.16532982786E+02  0.33819345103E+02  0.25500000000E-02 0.  1.
<mgrwt>
<rscale>  0 0.62014901E+02</rscale>
<asrwt>0</asrwt>
<pdfrwt beam="2">  1        1 0.11190155E-01 0.62014901E+02</pdfrwt>
<pdfrwt beam="1">  1       -1 0.20336177E-02 0.62014901E+02</pdfrwt>
<totfact> 0.27886349E+05</totfact>
</mgrwt>
</event>
<event>
 4    1  0.1893769E-002  0.7192073E+02  0.7818608E-02  0.1353681E+00
          1   -1    0    0    0  501  0.00000000000E+00  0.00000000000E+00  0.22557077093E+01  0.22557133398E+01  0.50400000000E-02 0.  1.
         -1   -1    0    0  501    0 -0.00000000000E+00 -0.00000000000E+00 -0.57327732410E+03  0.57327732412E+03  0.50400000000E-02 0.  1.
          2    1    1    2    0  502  0.28987527158E+02  0.15005921137E+02 -0.40626197098E+03  0.40757115142E+03  0.25500000000E-02 0. -1.
         -2    1    1    2  502    0 -0.28987527158E+02 -0.15005921137E+02 -0.16475964541E+03  0.16796188604E+03  0.25500000000E-02 0. -1.
<mgrwt>
<rscale>  0 0.71920726E+02</rscale>
<asrwt>0</asrwt>
<pdfrwt beam="1">  1        1 0.34703285E-03 0.71920726E+02</pdfrwt>
<pdfrwt beam="2">  1       -1 0.88196396E-01 0.71920726E+02</pdfrwt>
<totfact> 0.79642297E+04</totfact>
</mgrwt>
</event>
<event>
 4    1  0.1893769E-002  0.6050219E+02  0.7818608E-02  0.1395736E+00
         -1   -1    0    0  501    0 -0.00000000000E+00  0.00000000000E+00  0.22125206554E+02  0.22125207128E+02  0.50400000000E-02 0.  1.
          1   -1    0    0    0  501  0.00000000000E+00 -0.00000000000E+00 -0.41361363862E+02  0.41361364170E+02  0.50400000000E-02 0.  1.
          2    1    1    2    0  502  0.38261762151E+01  0.29698730677E+02 -0.14128293877E+02  0.33109861410E+02  0.25500000000E-02 0. -1.
         -2    1    1    2  502    0 -0.38261762151E+01 -0.29698730677E+02 -0.51078634319E+01  0.30376709887E+02  0.25500000000E-02 0. -1.
<mgrwt>
<rscale>  0 0.60502190E+02</rscale>
<asrwt>0</asrwt>
<pdfrwt beam="2">  1        1 0.63632868E-02 0.60502190E+02</pdfrwt>
<pdfrwt beam="1">  1       -1 0.34038780E-02 0.60502190E+02</pdfrwt>
<totfact> 0.27877228E+05</totfact>
</mgrwt>
</event>
<event>
 4    1  0.1893769E-002  0.5559486E+02  0.7818608E-02  0.1417307E+00
          1   -1    0    0    0  501  0.00000000000E+00  0.00000000000E+00  0.48574110360E+03  0.48574110363E+03  0.50400000000E-02 0. -1.
         -1   -1    0    0  501    0 -0.00000000000E+00 -0.00000000000E+00 -0.15907551196E+01  0.15907631037E+01  0.50400000000E-02 0. -1.
          2    1    1    2    0  502  0.21017516048E+02  0.12958678465E+02  0.13014969763E+03  0.13247115583E+03  0.25500000000E-02 0. -1.
         -2    1    1    2  502    0 -0.21017516048E+02 -0.12958678465E+02  0.35400065085E+03  0.35486071090E+03  0.25500000000E-02 0. -1.
<mgrwt>
<rscale>  0 0.55594859E+02</rscale>
<asrwt>0</asrwt>
<pdfrwt beam="1">  1        1 0.74729360E-01 0.55594859E+02</pdfrwt>
<pdfrwt beam="2">  1       -1 0.24473231E-03 0.55594859E+02</pdfrwt>
<totfact> 0.49824830E+05</totfact>
</mgrwt>
</event>
<event>
 4    1  0.1893769E-002  0.4524173E+02  0.7818608E-02  0.1472838E+00
          1   -1    0    0    0  501  0.00000000000E+00  0.00000000000E+00  0.26809991734E+01  0.26810039107E+01  0.50400000000E-02 0.  1.
         -1   -1    0    0  501    0 -0.00000000000E+00 -0.00000000000E+00 -0.19086284328E+03  0.19086284335E+03  0.50400000000E-02 0.  1.
          2    1    1    2    0  502 -0.17268068663E+02  0.10778945600E+02 -0.51885588123E+02  0.55735860314E+02  0.25500000000E-02 0. -1.
         -2    1    1    2  502    0  0.17268068663E+02 -0.10778945600E+02 -0.13629625599E+03  0.13780798694E+03  0.25500000000E-02 0. -1.
<mgrwt>
<rscale>  0 0.45241733E+02</rscale>
<asrwt>0</asrwt>
<pdfrwt beam="1">  1        1 0.41246193E-03 0.45241733E+02</pdfrwt>
<pdfrwt beam="2">  1       -1 0.29363504E-01 0.45241733E+02</pdfrwt>
<totfact> 0.41543512E+05</totfact>
</mgrwt>
</event>
<event>
 4    1  0.1893769E-002  0.7629781E+02  0.7818608E-02  0.1339899E+00
          1   -1    0    0    0  501  0.00000000000E+00  0.00000000000E+00  0.14406114524E+02  0.14406115405E+02  0.50400000000E-02 0.  1.
         -1   -1    0    0  501    0 -0.00000000000E+00 -0.00000000000E+00 -0.10102230609E+03  0.10102230621E+03  0.50400000000E-02 0.  1.
          2    1    1    2    0  502 -0.32726119715E+02  0.24343792414E+01 -0.72737684516E+02  0.79797843762E+02  0.25500000000E-02 0.  1.
         -2    1    1    2  502    0  0.32726119715E+02 -0.24343792414E+01 -0.13878507047E+02  0.35630577855E+02  0.25500000000E-02 0.  1.
<mgrwt>
<rscale>  0 0.76297810E+02</rscale>
<asrwt>0</asrwt>
<pdfrwt beam="1">  1        1 0.22163255E-02 0.76297810E+02</pdfrwt>
<pdfrwt beam="2">  1       -1 0.15541893E-01 0.76297810E+02</pdfrwt>
<totfact> 0.12827654E+05</totfact>
</mgrwt>
</event>
<event>
 4    1  0.1893769E-002  0.1367566E+03  0.7818608E-02  0.1217761E+00
          1   -1    0    0    0  501  0.00000000000E+00  0.00000000000E+00  0.27793969648E+03  0.27793969652E+03  0.50400000000E-02 0.  1.
         -1   -1    0    0  501    0 -0.00000000000E+00 -0.00000000000E+00 -0.16822326906E+02  0.16822327661E+02  0.50400000000E-02 0.  1.
          2    1    1    2    0  502 -0.20983489721E+02 -0.28596295760E+02  0.25656138571E+03  0.25900154366E+03  0.25500000000E-02 0. -1.
         -2    1    1    2  502    0  0.20983489721E+02  0.28596295760E+02  0.45559838585E+01  0.35760480526E+02  0.25500000000E-02 0. -1.
<mgrwt>
<rscale>  0 0.13675661E+03</rscale>
<asrwt>0</asrwt>
<pdfrwt beam="1">  1        1 0.42759955E-01 0.13675661E+03</pdfrwt>
<pdfrwt beam="2">  1       -1 0.25880503E-02 0.13675661E+03</pdfrwt>
<totfact> 0.41790694E+04</totfact>
</mgrwt>
</event>
<event>
 4    1  0.1893769E-002  0.5619664E+02  0.7818608E-02  0.1414523E+00
         -1   -1    0    0  501    0 -0.00000000000E+00  0.00000000000E+00  0.61558294739E+00  0.61560357919E+00  0.50400000000E-02 0. -1.
          1   -1    0    0    0  501  0.00000000000E+00 -0.00000000000E+00 -0.12825277873E+04  0.12825277873E+04  0.50400000000E-02 0. -1.
          2    1    1    2    0  502  0.10959762509E+02 -0.21074425100E+02 -0.29825593303E+03  0.29920034990E+03  0.25500000000E-02 0.  1.
         -2    1    1    2  502    0 -0.10959762509E+02  0.21074425100E+02 -0.98365627133E+03  0.98394304100E+03  0.25500000000E-02 0.  1.
<mgrwt>
<rscale>  0 0.56196636E+02</rscale>
<asrwt>0</asrwt>
<pdfrwt beam="2">  1        1 0.19730983E+00 0.56196636E+02</pdfrwt>
<pdfrwt beam="1">  1       -1 0.94707683E-04 0.56196636E+02</pdfrwt>
<totfact> 0.42930718E+05</totfact>
</mgrwt>
</event>
<event>
 4    1  0.1893769E-002  0.4240088E+02  0.7818608E-02  0.1491252E+00
         -1   -1    0    0  501    0 -0.00000000000E+00  0.00000000000E+00  0.68990618352E+01  0.68990636761E+01  0.50400000000E-02 0. -1.
          1   -1    0    0    0  501  0.00000000000E+00 -0.00000000000E+00 -0.65147793231E+02  0.65147793426E+02  0.50400000000E-02 0. -1.
          2    1    1    2    0  502 -0.10773598689E+02  0.18073740905E+02 -0.33531831924E+02  0.39586794487E+02  0.25500000000E-02 0.  1.
         -2    1    1    2  502    0  0.10773598689E+02 -0.18073740905E+02 -0.24716899471E+02  0.32460062615E+02  0.25500000000E-02 0.  1.
<mgrwt>
<rscale>  0 0.42400883E+02</rscale>
<asrwt>0</asrwt>
<pdfrwt beam="2">  1        1 0.10022737E-01 0.42400883E+02</pdfrwt>
<pdfrwt beam="1">  1       -1 0.10613943E-02 0.42400883E+02</pdfrwt>
<totfact> 0.72539104E+05</totfact>
</mgrwt>
</event>
<event>
 4    1  0.1893769E-002  0.7003601E+02  0.7818608E-02  0.1359971E+00
          1   -1    0    0    0  501  0.00000000000E+00  0.00000000000E+00  0.47918536427E+03  0.47918536429E+03  0.50400000000E-02 0. -1.
         -1   -1    0    0  501    0 -0.00000000000E+00 -0.00000000000E+00 -0.25590500236E+01  0.25590549867E+01  0.50400000000E-02 0. -1.
          2    1    1    2    0  502  0.12568651109E+02 -0.29067168370E+02  0.13550526517E+03  0.13915655990E+03  0.25500000000E-02 0. -1.
         -2    1    1    2  502    0 -0.12568651109E+02  0.29067168370E+02  0.34112104907E+03  0.34258785938E+03  0.25500000000E-02 0. -1.
<mgrwt>
<rscale>  0 0.70036006E+02</rscale>
<asrwt>0</asrwt>
<pdfrwt beam="1">  1        1 0.73720852E-01 0.70036006E+02</pdfrwt>
<pdfrwt beam="2">  1       -1 0.39370024E-03 0.70036006E+02</pdfrwt>
<totfact> 0.27618992E+05</totfact>
</mgrwt>
</event>
<event>
 4    1  0.1893769E-002  0.7786696E+02  0.7818608E-02  0.1335216E+00
         -1   -1    0    0  501    0 -0.00000000000E+00  0.00000000000E+00  0.21644440554E+02  0.21644441141E+02  0.50400000000E-02 0. -1.
          1   -1    0    0    0  501  0.00000000000E+00 -0.00000000000E+00 -0.70032578675E+02  0.70032578856E+02  0.50400000000E-02 0. -1.
          2    1    1    2    0  502 -0.38198427666E+02  0.19955738807E+01 -0.32742167294E+02  0.50350290137E+02  0.25500000000E-02 0. -1.
         -2    1    1    2  502    0  0.38198427666E+02 -0.19955738807E+01 -0.15645970827E+02  0.41326729860E+02  0.25500000000E-02 0. -1.
<mgrwt>
<rscale>  0 0.77866964E+02</rscale>
<asrwt>0</asrwt>
<pdfrwt beam="2">  1        1 0.10774243E-01 0.77866964E+02</pdfrwt>
<pdfrwt beam="1">  1       -1 0.33299140E-02 0.77866964E+02</pdfrwt>
<totfact> 0.15170611E+05</totfact>
</mgrwt>
</event>
<event>
 4    1  0.1893769E-002  0.7659437E+02  0.7818608E-02  0.1339004E+00
          1   -1    0    0    0  501  0.00000000000E+00  0.00000000000E+00  0.28750772642E+02  0.28750773084E+02  0.50400000000E-02 0. -1.
         -1   -1    0    0  501    0 -0.00000000000E+00 -0.00000000000E+00 -0.51013393115E+02  0.51013393364E+02  0.50400000000E-02 0. -1.
          2    1    1    2    0  502 -0.45607496832E+01  0.36493482679E+02 -0.75055534366E-02  0.36777367749E+02  0.25500000000E-02 0.  1.
         -2    1    1    2  502    0  0.45607496832E+01 -0.36493482679E+02 -0.22255114919E+02  0.42986798698E+02  0.25500000000E-02 0.  1.
<mgrwt>
<rscale>  0 0.76594373E+02</rscale>
<asrwt>0</asrwt>
<pdfrwt beam="1">  1        1 0.44231958E-02 0.76594373E+02</pdfrwt>
<pdfrwt beam="2">  1       -1 0.78482144E-02 0.76594373E+02</pdfrwt>
<totfact> 0.14097832E+05</totfact>
</mgrwt>
</event>
<event>
 4    1  0.1893769E-002  0.6439300E+02  0.7818608E-02  0.1380269E+00
         -1   -1    0    0  501    0 -0.00000000000E+00  0.00000000000E+00  0.21808862480E+01  0.21808920717E+01  0.50400000000E-02 0. -1.
          1   -1    0    0    0  501  0.00000000000E+00 -0.00000000000E+00 -0.47531743805E+03  0.47531743808E+03  0.50400000000E-02 0. -1.
          2    1    1    2    0  502  0.14506862527E+02 -0.21094295397E+02 -0.38134792642E+03  0.38220630470E+03  0.25500000000E-02 0.  1.
         -2    1    1    2  502    0 -0.14506862527E+02  0.21094295397E+02 -0.91788625383E+02  0.95292025453E+02  0.25500000000E-02 0.  1.
<mgrwt>
<rscale>  0 0.64393002E+02</rscale>
<asrwt>0</asrwt>
<pdfrwt beam="2">  1        1 0.73125678E-01 0.64393002E+02</pdfrwt>
<pdfrwt beam="1">  1       -1 0.33552179E-03 0.64393002E+02</pdfrwt>
<totfact> 0.34236790E+05</totfact>
</mgrwt>
</event>
<event>
 4    1  0.1893769E-002  0.4370804E+02  0.7818608E-02  0.1482572E+00
         -1   -1    0    0  501    0 -0.00000000000E+00  0.00000000000E+00  0.58288329761E+02  0.58288329979E+02  0.50400000000E-02 0.  1.
          1   -1    0    0    0  501  0.00000000000E+00 -0.00000000000E+00 -0.81937170595E+01  0.81937186096E+01  0.50400000000E-02 0.  1.
          2    1    1    2    0  502 -0.20476122712E+02  0.22033319263E+01  0.36169891390E+02  0.41621957217E+02  0.25500000000E-02 0.  1.
         -2    1    1    2  502    0  0.20476122712E+02 -0.22033319263E+01  0.13924721311E+02  0.24860091371E+02  0.25500000000E-02 0.  1.
<mgrwt>
<rscale>  0 0.43708038E+02</rscale>
<asrwt>0</asrwt>
<pdfrwt beam="2">  1        1 0.12605719E-02 0.43708038E+02</pdfrwt>
<pdfrwt beam="1">  1       -1 0.89674359E-02 0.43708038E+02</pdfrwt>
<totfact> 0.55812817E+05</totfact>
</mgrwt>
</event>
<event>
 4    1  0.1893769E-002  0.5230442E+02  0.7818608E-02  0.1433294E+00
          1   -1    0    0    0  501  0.00000000000E+00  0.00000000000E+00  0.32230249461E+03  0.32230249465E+03  0.50400000000E-02 0.  1.
         -1   -1    0    0  501    0 -0.00000000000E+00 -0.00000000000E+00 -0.21220349345E+01  0.21220409197E+01  0.50400000000E-02 0.  1.
          2    1    1    2    0  502  0.22263068359E+02  0.27412027947E+01  0.24348717452E+03  0.24451822543E+03  0.25500000000E-02 0.  1.
         -2    1    1    2  502    0 -0.22263068359E+02 -0.27412027947E+01  0.76693285158E+02  0.79906310141E+02  0.25500000000E-02 0.  1.
<mgrwt>
<rscale>  0 0.52304422E+02</rscale>
<asrwt>0</asrwt>
<pdfrwt beam="1">  1        1 0.49584983E-01 0.52304422E+02</pdfrwt>
<pdfrwt beam="2">  1       -1 0.32646749E-03 0.52304422E+02</pdfrwt>
<totfact> 0.54604319E+05</totfact>
</mgrwt>
</event>
<event>
 4    1  0.1893769E-002  0.5735960E+02  0.7818608E-02  0.1409259E+00
          1   -1    0    0    0  501  0.00000000000E+00  0.00000000000E+00  0.76600007329E+00  0.76601665379E+00  0.50400000000E-02 0.  1.
         -1   -1    0    0  501    0 -0.00000000000E+00 -0.00000000000E+00 -0.10737885476E+04  0.10737885477E+04  0.50400000000E-02 0.  1.
          2    1    1    2    0  502  0.16275383956E+02 -0.17386312405E+02 -0.23714839490E+03  0.23834121169E+03  0.25500000000E-02 0. -1.
         -2    1    1    2  502    0 -0.16275383956E+02  0.17386312405E+02 -0.83587415268E+03  0.83621335262E+03  0.25500000000E-02 0. -1.
<mgrwt>
<rscale>  0 0.57359603E+02</rscale>
<asrwt>0</asrwt>
<pdfrwt beam="1">  1        1 0.11784830E-03 0.57359603E+02</pdfrwt>
<pdfrwt beam="2">  1       -1 0.16519704E+00 0.57359603E+02</pdfrwt>
<totfact> 0.77366157E+04</totfact>
</mgrwt>
</event>
<event>
 4    1  0.1893769E-002  0.5011371E+02  0.7818608E-02  0.1444729E+00
          1   -1    0    0    0  501  0.00000000000E+00  0.00000000000E+00  0.36114571099E+03  0.36114571102E+03  0.50400000000E-02 0.  1.
         -1   -1    0    0  501    0 -0.00000000000E+00 -0.00000000000E+00 -0.17384801509E+01  0.17384874566E+01  0.50400000000E-02 0.  1.
          2    1    1    2    0  502 -0.89137793650E+01  0.21730040187E+02  0.24291236635E+03  0.24404521679E+03  0.25500000000E-02 0.  1.
         -2    1    1    2  502    0  0.89137793650E+01 -0.21730040187E+02  0.11649486449E+03  0.11883898169E+03  0.25500000000E-02 0.  1.
<mgrwt>
<rscale>  0 0.50113710E+02</rscale>
<asrwt>0</asrwt>
<pdfrwt beam="1">  1        1 0.55560858E-01 0.50113710E+02</pdfrwt>
<pdfrwt beam="2">  1       -1 0.26745915E-03 0.50113710E+02</pdfrwt>
<totfact> 0.61923813E+05</totfact>
</mgrwt>
</event>
<event>
 4    1  0.1893769E-002  0.6476867E+02  0.7818608E-02  0.1378844E+00
         -1   -1    0    0  501    0 -0.00000000000E+00  0.00000000000E+00  0.64273231378E+01  0.64273251139E+01  0.50400000000E-02 0.  1.
          1   -1    0    0    0  501  0.00000000000E+00 -0.00000000000E+00 -0.16316981221E+03  0.16316981229E+03  0.50400000000E-02 0.  1.
          2    1    1    2    0  502 -0.15622222961E+02  0.28363183002E+02 -0.79602991374E+02  0.85936955045E+02  0.25500000000E-02 0.  1.
         -2    1    1    2  502    0  0.15622222961E+02 -0.28363183002E+02 -0.77139497696E+02  0.83660182354E+02  0.25500000000E-02 0.  1.
<mgrwt>
<rscale>  0 0.64768674E+02</rscale>
<asrwt>0</asrwt>
<pdfrwt beam="2">  1        1 0.25103045E-01 0.64768674E+02</pdfrwt>
<pdfrwt beam="1">  1       -1 0.98881923E-03 0.64768674E+02</pdfrwt>
<totfact> 0.28085544E+05</totfact>
</mgrwt>
</event>
<event>
 4    1  0.1893769E-002  0.4122664E+02  0.7818608E-02  0.1499374E+00
         -1   -1    0    0  501    0 -0.00000000000E+00  0.00000000000E+00  0.72635822183E+03  0.72635822185E+03  0.50400000000E-02 0.  1.
          1   -1    0    0    0  501  0.00000000000E+00 -0.00000000000E+00 -0.58497464504E+00  0.58499635635E+00  0.50400000000E-02 0.  1.
          2    1    1    2    0  502  0.19270208034E+02 -0.68645038488E+01  0.40765706291E+03  0.40816999312E+03  0.25500000000E-02 0.  1.
         -2    1    1    2  502    0 -0.19270208034E+02  0.68645038488E+01  0.31811618427E+03  0.31877322509E+03  0.25500000000E-02 0.  1.
<mgrwt>
<rscale>  0 0.41226644E+02</rscale>
<asrwt>0</asrwt>
<pdfrwt beam="2">  1        1 0.89997750E-04 0.41226644E+02</pdfrwt>
<pdfrwt beam="1">  1       -1 0.11174745E+00 0.41226644E+02</pdfrwt>
<totfact> 0.26565121E+05</totfact>
</mgrwt>
</event>
<event>
 4    1  0.1893769E-002  0.5244115E+02  0.7818608E-02  0.1432602E+00
         -1   -1    0    0  501    0 -0.00000000000E+00  0.00000000000E+00  0.43098741301E+02  0.43098741596E+02  0.50400000000E-02 0. -1.
          1   -1    0    0    0  501  0.00000000000E+00 -0.00000000000E+00 -0.15952169924E+02  0.15952170720E+02  0.50400000000E-02 0. -1.
          2    1    1    2    0  502 -0.15477427844E+02 -0.15670472002E+02 -0.24467684639E+01  0.22160802058E+02  0.25500000000E-02 0.  1.
         -2    1    1    2  502    0  0.15477427844E+02  0.15670472002E+02  0.29593339841E+02  0.36890110258E+02  0.25500000000E-02 0.  1.
<mgrwt>
<rscale>  0 0.52441147E+02</rscale>
<asrwt>0</asrwt>
<pdfrwt beam="2">  1        1 0.24541801E-02 0.52441147E+02</pdfrwt>
<pdfrwt beam="1">  1       -1 0.66305756E-02 0.52441147E+02</pdfrwt>
<totfact> 0.36939090E+05</totfact>
</mgrwt>
</event>
<event>
 4    1  0.1893769E-002  0.1124061E+03  0.7818608E-02  0.1256178E+00
         -1   -1    0    0  501    0 -0.00000000000E+00  0.00000000000E+00  0.13861617700E+02  0.13861618616E+02  0.50400000000E-02 0.  1.
          1   -1    0    0    0  501  0.00000000000E+00 -0.00000000000E+00 -0.22787982374E+03  0.22787982380E+03  0.50400000000E-02 0.  1.
          2    1    1    2    0  502 -0.46194966128E+02  0.18310348399E+02 -0.16348208734E+03  0.17086730712E+03  0.25500000000E-02 0. -1.
         -2    1    1    2  502    0  0.46194966128E+02 -0.18310348399E+02 -0.50536118702E+02  0.70874135296E+02  0.25500000000E-02 0. -1.
<mgrwt>
<rscale>  0 0.11240611E+03</rscale>
<asrwt>0</asrwt>
<pdfrwt beam="2">  1        1 0.35058432E-01 0.11240611E+03</pdfrwt>
<pdfrwt beam="1">  1       -1 0.21325568E-02 0.11240611E+03</pdfrwt>
<totfact> 0.68911597E+04</totfact>
</mgrwt>
</event>
<event>
 4    1  0.1893769E-002  0.4164160E+02  0.7818608E-02  0.1496467E+00
          1   -1    0    0    0  501  0.00000000000E+00  0.00000000000E+00  0.84476817237E+03  0.84476817238E+03  0.50400000000E-02 0.  1.
         -1   -1    0    0  501    0 -0.00000000000E+00 -0.00000000000E+00 -0.51315294331E+00  0.51317769323E+00  0.50400000000E-02 0.  1.
          2    1    1    2    0  502 -0.61191025655E+01  0.19838002579E+02  0.45432534994E+03  0.45479942103E+03  0.25500000000E-02 0. -1.
         -2    1    1    2  502    0  0.61191025655E+01 -0.19838002579E+02  0.38992966948E+03  0.39048192905E+03  0.25500000000E-02 0. -1.
<mgrwt>
<rscale>  0 0.41641601E+02</rscale>
<asrwt>0</asrwt>
<pdfrwt beam="1">  1        1 0.12996324E+00 0.41641601E+02</pdfrwt>
<pdfrwt beam="2">  1       -1 0.78949177E-04 0.41641601E+02</pdfrwt>
<totfact> 0.10266018E+06</totfact>
</mgrwt>
</event>
<event>
 4    1  0.1893769E-002  0.4844684E+02  0.7818608E-02  0.1453903E+00
          1   -1    0    0    0  501  0.00000000000E+00  0.00000000000E+00  0.10624413741E+01  0.10624533284E+01  0.50400000000E-02 0.  1.
         -1   -1    0    0  501    0 -0.00000000000E+00 -0.00000000000E+00 -0.55228532597E+03  0.55228532600E+03  0.50400000000E-02 0.  1.
          2    1    1    2    0  502 -0.17688409121E+02  0.12268659171E+02 -0.14874551074E+03  0.15029513228E+03  0.25500000000E-02 0. -1.
         -2    1    1    2  502    0  0.17688409121E+02 -0.12268659171E+02 -0.40247737386E+03  0.40305264705E+03  0.25500000000E-02 0. -1.
<mgrwt>
<rscale>  0 0.48446841E+02</rscale>
<asrwt>0</asrwt>
<pdfrwt beam="1">  1        1 0.16345388E-03 0.48446841E+02</pdfrwt>
<pdfrwt beam="2">  1       -1 0.84966745E-01 0.48446841E+02</pdfrwt>
<totfact> 0.22121820E+05</totfact>
</mgrwt>
</event>
<event>
 4    1  0.1893769E-002  0.2561592E+03  0.7818608E-02  0.1109473E+00
          1   -1    0    0    0  501  0.00000000000E+00  0.00000000000E+00  0.66495319247E+02  0.66495319438E+02  0.50400000000E-02 0. -1.
         -1   -1    0    0  501    0 -0.00000000000E+00 -0.00000000000E+00 -0.24669975218E+03  0.24669975223E+03  0.50400000000E-02 0. -1.
          2    1    1    2    0  502 -0.12637786563E+03 -0.20140704946E+02 -0.83706195918E+02  0.15291742922E+03  0.25500000000E-02 0.  1.
         -2    1    1    2  502    0  0.12637786563E+03  0.20140704946E+02 -0.96498237013E+02  0.16027764245E+03  0.25500000000E-02 0.  1.
<mgrwt>
<rscale>  0 0.25615916E+03</rscale>
<asrwt>0</asrwt>
<pdfrwt beam="1">  1        1 0.10230049E-01 0.25615916E+03</pdfrwt>
<pdfrwt beam="2">  1       -1 0.37953808E-01 0.25615916E+03</pdfrwt>
<totfact> 0.41813782E+03</totfact>
</mgrwt>
</event>
<event>
 4    1  0.1893769E-002  0.4182096E+02  0.7818608E-02  0.1495223E+00
          1   -1    0    0    0  501  0.00000000000E+00  0.00000000000E+00  0.44609654596E+02  0.44609654881E+02  0.50400000000E-02 0. -1.
         -1   -1    0    0  501    0 -0.00000000000E+00 -0.00000000000E+00 -0.98016484021E+01  0.98016496979E+01  0.50400000000E-02 0. -1.
          2    1    1    2    0  502 -0.12665097726E+02 -0.16446448504E+02  0.14123434251E+02  0.25107006399E+02  0.25500000000E-02 0. -1.
         -2    1    1    2  502    0  0.12665097726E+02  0.16446448504E+02  0.20684571943E+02  0.29304298179E+02  0.25500000000E-02 0. -1.
<mgrwt>
<rscale>  0 0.41820961E+02</rscale>
<asrwt>0</asrwt>
<pdfrwt beam="1">  1        1 0.68630239E-02 0.41820961E+02</pdfrwt>
<pdfrwt beam="2">  1       -1 0.15079460E-02 0.41820961E+02</pdfrwt>
<totfact> 0.72427709E+05</totfact>
</mgrwt>
</event>
<event>
 4    1  0.1893769E-002  0.4455445E+02  0.7818608E-02  0.1477142E+00
          1   -1    0    0    0  501  0.00000000000E+00  0.00000000000E+00  0.18994769432E+01  0.18994836297E+01  0.50400000000E-02 0.  1.
         -1   -1    0    0  501    0 -0.00000000000E+00 -0.00000000000E+00 -0.26126867422E+03  0.26126867427E+03  0.50400000000E-02 0.  1.
          2    1    1    2    0  502 -0.64177031823E+01 -0.21030375187E+02 -0.15082608975E+03  0.15242038233E+03  0.25500000000E-02 0. -1.
         -2    1    1    2  502    0  0.64177031823E+01  0.21030375187E+02 -0.10854310753E+03  0.11074777557E+03  0.25500000000E-02 0. -1.
<mgrwt>
<rscale>  0 0.44554448E+02</rscale>
<asrwt>0</asrwt>
<pdfrwt beam="1">  1        1 0.29222795E-03 0.44554448E+02</pdfrwt>
<pdfrwt beam="2">  1       -1 0.40195153E-01 0.44554448E+02</pdfrwt>
<totfact> 0.39200771E+05</totfact>
</mgrwt>
</event>
<event>
 4    1  0.1893769E-002  0.5526032E+02  0.7818608E-02  0.1418872E+00
         -1   -1    0    0  501    0 -0.00000000000E+00  0.00000000000E+00  0.24215270568E+02  0.24215271092E+02  0.50400000000E-02 0. -1.
          1   -1    0    0    0  501  0.00000000000E+00 -0.00000000000E+00 -0.31526620659E+02  0.31526621062E+02  0.50400000000E-02 0. -1.
          2    1    1    2    0  502 -0.25817982255E+02  0.23012710185E-01  0.62716829386E+01  0.26568830435E+02  0.25500000000E-02 0.  1.
         -2    1    1    2  502    0  0.25817982255E+02 -0.23012710185E-01 -0.13583033030E+02  0.29173061720E+02  0.25500000000E-02 0.  1.
<mgrwt>
<rscale>  0 0.55260318E+02</rscale>
<asrwt>0</asrwt>
<pdfrwt beam="2">  1        1 0.48502494E-02 0.55260318E+02</pdfrwt>
<pdfrwt beam="1">  1       -1 0.37254263E-02 0.55260318E+02</pdfrwt>
<totfact> 0.34414943E+05</totfact>
</mgrwt>
</event>
<event>
 4    1  0.1893769E-002  0.6550404E+02  0.7818608E-02  0.1376085E+00
          1   -1    0    0    0  501  0.00000000000E+00  0.00000000000E+00  0.12679671211E+04  0.12679671212E+04  0.50400000000E-02 0.  1.
         -1   -1    0    0  501    0 -0.00000000000E+00 -0.00000000000E+00 -0.84598829907E+00  0.84600331191E+00  0.50400000000E-02 0.  1.
          2    1    1    2    0  502 -0.17089469303E+02 -0.25426588886E+02  0.85789615385E+03  0.85844299297E+03  0.25500000000E-02 0.  1.
         -2    1    1    2  502    0  0.17089469303E+02  0.25426588886E+02  0.40922497899E+03  0.41037013149E+03  0.25500000000E-02 0.  1.
<mgrwt>
<rscale>  0 0.65504042E+02</rscale>
<asrwt>0</asrwt>
<pdfrwt beam="1">  1        1 0.19507072E+00 0.65504042E+02</pdfrwt>
<pdfrwt beam="2">  1       -1 0.13015397E-03 0.65504042E+02</pdfrwt>
<totfact> 0.29274683E+05</totfact>
</mgrwt>
</event>
<event>
 4    1  0.1893769E-002  0.5444514E+02  0.7818608E-02  0.1422741E+00
         -1   -1    0    0  501    0 -0.00000000000E+00  0.00000000000E+00  0.54309538718E+00  0.54311877263E+00  0.50400000000E-02 0.  1.
          1   -1    0    0    0  501  0.00000000000E+00 -0.00000000000E+00 -0.13644974012E+04  0.13644974012E+04  0.50400000000E-02 0.  1.
          2    1    1    2    0  502  0.19839242647E+02 -0.10585080177E+02 -0.29728246530E+03  0.29813168844E+03  0.25500000000E-02 0.  1.
         -2    1    1    2  502    0 -0.19839242647E+02  0.10585080177E+02 -0.10666718405E+04  0.10669088315E+04  0.25500000000E-02 0.  1.
<mgrwt>
<rscale>  0 0.54445136E+02</rscale>
<asrwt>0</asrwt>
<pdfrwt beam="2">  1        1 0.20991993E+00 0.54445136E+02</pdfrwt>
<pdfrwt beam="1">  1       -1 0.83556028E-04 0.54445136E+02</pdfrwt>
<totfact> 0.44798719E+05</totfact>
</mgrwt>
</event>
<event>
 4    1  0.1893769E-002  0.8420826E+02  0.7818608E-02  0.1317516E+00
          1   -1    0    0    0  501  0.00000000000E+00  0.00000000000E+00  0.15827563549E+03  0.15827563557E+03  0.50400000000E-02 0. -1.
         -1   -1    0    0  501    0 -0.00000000000E+00 -0.00000000000E+00 -0.11200446456E+02  0.11200447590E+02  0.50400000000E-02 0. -1.
          2    1    1    2    0  502 -0.29145607286E+02 -0.18824211129E+02  0.12154266877E+03  0.12639793387E+03  0.25500000000E-02 0.  1.
         -2    1    1    2  502    0  0.29145607286E+02  0.18824211129E+02  0.25532520265E+02  0.43078149291E+02  0.25500000000E-02 0.  1.
<mgrwt>
<rscale>  0 0.84208263E+02</rscale>
<asrwt>0</asrwt>
<pdfrwt beam="1">  1        1 0.24350096E-01 0.84208263E+02</pdfrwt>
<pdfrwt beam="2">  1       -1 0.17231459E-02 0.84208263E+02</pdfrwt>
<totfact> 0.14015033E+05</totfact>
</mgrwt>
</event>
<event>
 4    1  0.1893769E-002  0.7884248E+02  0.7818608E-02  0.1332369E+00
         -1   -1    0    0  501    0 -0.00000000000E+00  0.00000000000E+00  0.87422395314E+01  0.87422409842E+01  0.50400000000E-02 0.  1.
          1   -1    0    0    0  501  0.00000000000E+00 -0.00000000000E+00 -0.17776155506E+03  0.17776155513E+03  0.50400000000E-02 0.  1.
          2    1    1    2    0  502  0.79926583744E+01  0.35933475550E+02 -0.11787419808E+03  0.12348855749E+03  0.25500000000E-02 0. -1.
         -2    1    1    2  502    0 -0.79926583744E+01 -0.35933475550E+02 -0.51145117451E+02  0.63015238622E+02  0.25500000000E-02 0. -1.
<mgrwt>
<rscale>  0 0.78842482E+02</rscale>
<asrwt>0</asrwt>
<pdfrwt beam="2">  1        1 0.27347929E-01 0.78842482E+02</pdfrwt>
<pdfrwt beam="1">  1       -1 0.13449602E-02 0.78842482E+02</pdfrwt>
<totfact> 0.17050549E+05</totfact>
</mgrwt>
</event>
<event>
 4    1  0.1893769E-002  0.4198283E+02  0.7818608E-02  0.1494107E+00
         -1   -1    0    0  501    0 -0.00000000000E+00  0.00000000000E+00  0.82072393731E+00  0.82073941228E+00  0.50400000000E-02 0. -1.
          1   -1    0    0    0  501  0.00000000000E+00 -0.00000000000E+00 -0.53688608783E+03  0.53688608785E+03  0.50400000000E-02 0. -1.
          2    1    1    2    0  502 -0.19113034027E+02 -0.85288882735E+01 -0.28864254327E+03  0.28940035901E+03  0.25500000000E-02 0. -1.
         -2    1    1    2  502    0  0.19113034027E+02  0.85288882735E+01 -0.24742282063E+03  0.24830646826E+03  0.25500000000E-02 0. -1.
<mgrwt>
<rscale>  0 0.41982827E+02</rscale>
<asrwt>0</asrwt>
<pdfrwt beam="2">  1        1 0.82597580E-01 0.41982827E+02</pdfrwt>
<pdfrwt beam="1">  1       -1 0.12626684E-03 0.41982827E+02</pdfrwt>
<totfact> 0.10079162E+06</totfact>
</mgrwt>
</event>
<event>
 4    1  0.1893769E-002  0.4710094E+02  0.7818608E-02  0.1461636E+00
          1   -1    0    0    0  501  0.00000000000E+00  0.00000000000E+00  0.12569192438E+02  0.12569193448E+02  0.50400000000E-02 0.  1.
         -1   -1    0    0  501    0 -0.00000000000E+00 -0.00000000000E+00 -0.44125722474E+02  0.44125722762E+02  0.50400000000E-02 0.  1.
          2    1    1    2    0  502 -0.14664013316E+02 -0.14260793646E+02 -0.17295415130E+01  0.20527903992E+02  0.25500000000E-02 0.  1.
         -2    1    1    2  502    0  0.14664013316E+02  0.14260793646E+02 -0.29826988523E+02  0.36167012218E+02  0.25500000000E-02 0.  1.
<mgrwt>
<rscale>  0 0.47100944E+02</rscale>
<asrwt>0</asrwt>
<pdfrwt beam="1">  1        1 0.19337220E-02 0.47100944E+02</pdfrwt>
<pdfrwt beam="2">  1       -1 0.67885727E-02 0.47100944E+02</pdfrwt>
<totfact> 0.47939289E+05</totfact>
</mgrwt>
</event>
<event>
 4    1  0.1893769E-002  0.1454473E+03  0.7818608E-02  0.1206182E+00
         -1   -1    0    0  501    0 -0.00000000000E+00  0.00000000000E+00  0.13023696612E+03  0.13023696622E+03  0.50400000000E-02 0.  1.
          1   -1    0    0    0  501  0.00000000000E+00 -0.00000000000E+00 -0.40608495065E+02  0.40608495377E+02  0.50400000000E-02 0.  1.
          2    1    1    2    0  502  0.15500009545E+02 -0.50946988815E+02  0.10298920032E+03  0.11594231908E+03  0.25500000000E-02 0.  1.
         -2    1    1    2  502    0 -0.15500009545E+02  0.50946988815E+02 -0.13360729261E+02  0.54903142516E+02  0.25500000000E-02 0.  1.
<mgrwt>
<rscale>  0 0.14544727E+03</rscale>
<asrwt>0</asrwt>
<pdfrwt beam="2">  1        1 0.62474609E-02 0.14544727E+03</pdfrwt>
<pdfrwt beam="1">  1       -1 0.20036456E-01 0.14544727E+03</pdfrwt>
<totfact> 0.22845144E+04</totfact>
</mgrwt>
</event>
<event>
 4    1  0.1893769E-002  0.6582605E+02  0.7818608E-02  0.1374891E+00
          1   -1    0    0    0  501  0.00000000000E+00  0.00000000000E+00  0.29857584288E+01  0.29857626826E+01  0.50400000000E-02 0. -1.
         -1   -1    0    0  501    0 -0.00000000000E+00 -0.00000000000E+00 -0.36281110970E+03  0.36281110973E+03  0.50400000000E-02 0. -1.
          2    1    1    2    0  502  0.18324617112E+02 -0.22045329307E+02 -0.90053879513E+02  0.94506557224E+02  0.25500000000E-02 0. -1.
         -2    1    1    2  502    0 -0.18324617112E+02  0.22045329307E+02 -0.26977147176E+03  0.27129031519E+03  0.25500000000E-02 0. -1.
<mgrwt>
<rscale>  0 0.65826047E+02</rscale>
<asrwt>0</asrwt>
<pdfrwt beam="1">  1        1 0.45934807E-03 0.65826047E+02</pdfrwt>
<pdfrwt beam="2">  1       -1 0.55817059E-01 0.65826047E+02</pdfrwt>
<totfact> 0.12965986E+05</totfact>
</mgrwt>
</event>
<event>
 4    1  0.1893769E-002  0.9268373E+02  0.7818608E-02  0.1296480E+00
          1   -1    0    0    0  501  0.00000000000E+00  0.00000000000E+00  0.74964883296E+03  0.74964883298E+03  0.50400000000E-02 0.  1.
         -1   -1    0    0  501    0 -0.00000000000E+00 -0.00000000000E+00 -0.28647638072E+01  0.28647682406E+01  0.50400000000E-02 0.  1.
          2    1    1    2    0  502  0.21870554572E+02 -0.33625676183E+02  0.56181264115E+03  0.56324279935E+03  0.25500000000E-02 0. -1.
         -2    1    1    2  502    0 -0.21870554572E+02  0.33625676183E+02  0.18497142800E+03  0.18927080187E+03  0.25500000000E-02 0. -1.
<mgrwt>
<rscale>  0 0.92683731E+02</rscale>
<asrwt>0</asrwt>
<pdfrwt beam="1">  1        1 0.11533065E+00 0.92683731E+02</pdfrwt>
<pdfrwt beam="2">  1       -1 0.44073301E-03 0.92683731E+02</pdfrwt>
<totfact> 0.13588516E+05</totfact>
</mgrwt>
</event>
<event>
 4    1  0.1893769E-002  0.2146136E+03  0.7818608E-02  0.1137964E+00
         -1   -1    0    0  501    0 -0.00000000000E+00  0.00000000000E+00  0.44132601055E+03  0.44132601058E+03  0.50400000000E-02 0.  1.
          1   -1    0    0    0  501  0.00000000000E+00 -0.00000000000E+00 -0.26091246190E+02  0.26091246677E+02  0.50400000000E-02 0.  1.
          2    1    1    2    0  502  0.10256740917E+03 -0.24878396011E+02  0.24983463349E+03  0.27121274326E+03  0.25500000000E-02 0. -1.
         -2    1    1    2  502    0 -0.10256740917E+03  0.24878396011E+02  0.16540013088E+03  0.19620451400E+03  0.25500000000E-02 0. -1.
<mgrwt>
<rscale>  0 0.21461357E+03</rscale>
<asrwt>0</asrwt>
<pdfrwt beam="2">  1        1 0.40140378E-02 0.21461357E+03</pdfrwt>
<pdfrwt beam="1">  1       -1 0.67896312E-01 0.21461357E+03</pdfrwt>
<totfact> 0.50707004E+03</totfact>
</mgrwt>
</event>
<event>
 4    1  0.1893769E-002  0.4840913E+02  0.7818608E-02  0.1454116E+00
          1   -1    0    0    0  501  0.00000000000E+00  0.00000000000E+00  0.14148969155E+03  0.14148969164E+03  0.50400000000E-02 0. -1.
         -1   -1    0    0  501    0 -0.00000000000E+00 -0.00000000000E+00 -0.41406604226E+01  0.41406634899E+01  0.50400000000E-02 0. -1.
          2    1    1    2    0  502 -0.85386245043E+01  0.19864320264E+02  0.10140332041E+03  0.10368284682E+03  0.25500000000E-02 0. -1.
         -2    1    1    2  502    0  0.85386245043E+01 -0.19864320264E+02  0.35945710721E+02  0.41947508313E+02  0.25500000000E-02 0. -1.
<mgrwt>
<rscale>  0 0.48409131E+02</rscale>
<asrwt>0</asrwt>
<pdfrwt beam="1">  1        1 0.21767643E-01 0.48409131E+02</pdfrwt>
<pdfrwt beam="2">  1       -1 0.63702499E-03 0.48409131E+02</pdfrwt>
<totfact> 0.57576701E+05</totfact>
</mgrwt>
</event>
<event>
 4    1  0.1893769E-002  0.5455021E+02  0.7818608E-02  0.1422238E+00
          1   -1    0    0    0  501  0.00000000000E+00  0.00000000000E+00  0.36545636512E+01  0.36545671265E+01  0.50400000000E-02 0.  1.
         -1   -1    0    0  501    0 -0.00000000000E+00 -0.00000000000E+00 -0.20356215437E+03  0.20356215444E+03  0.50400000000E-02 0.  1.
          2    1    1    2    0  502 -0.55224786627E+01  0.21881601338E+02 -0.41767699070E+02  0.47474655763E+02  0.25500000000E-02 0. -1.
         -2    1    1    2  502    0  0.55224786627E+01 -0.21881601338E+02 -0.15813989165E+03  0.15974206580E+03  0.25500000000E-02 0. -1.
<mgrwt>
<rscale>  0 0.54550205E+02</rscale>
<asrwt>0</asrwt>
<pdfrwt beam="1">  1        1 0.56224099E-03 0.54550205E+02</pdfrwt>
<pdfrwt beam="2">  1       -1 0.31317246E-01 0.54550205E+02</pdfrwt>
<totfact> 0.25680954E+05</totfact>
</mgrwt>
</event>
<event>
 4    1  0.1893769E-002  0.7654404E+02  0.7818608E-02  0.1339155E+00
          1   -1    0    0    0  501  0.00000000000E+00  0.00000000000E+00  0.56823715021E+03  0.56823715023E+03  0.50400000000E-02 0.  1.
         -1   -1    0    0  501    0 -0.00000000000E+00 -0.00000000000E+00 -0.25777022434E+01  0.25777071706E+01  0.50400000000E-02 0.  1.
          2    1    1    2    0  502 -0.24898732844E+02  0.23268581088E+02  0.41271888959E+03  0.41412347868E+03  0.25500000000E-02 0.  1.
         -2    1    1    2  502    0  0.24898732844E+02 -0.23268581088E+02  0.15294055838E+03  0.15669137872E+03  0.25500000000E-02 0.  1.
<mgrwt>
<rscale>  0 0.76544042E+02</rscale>
<asrwt>0</asrwt>
<pdfrwt beam="1">  1        1 0.87421080E-01 0.76544042E+02</pdfrwt>
<pdfrwt beam="2">  1       -1 0.39657005E-03 0.76544042E+02</pdfrwt>
<totfact> 0.22324023E+05</totfact>
</mgrwt>
</event>
<event>
 4    1  0.1893769E-002  0.4719899E+02  0.7818608E-02  0.1461063E+00
         -1   -1    0    0  501    0 -0.00000000000E+00  0.00000000000E+00  0.59630011230E+00  0.59632141126E+00  0.50400000000E-02 0.  1.
          1   -1    0    0    0  501  0.00000000000E+00 -0.00000000000E+00 -0.93396964122E+03  0.93396964124E+03  0.50400000000E-02 0.  1.
          2    1    1    2    0  502 -0.13666358462E+02 -0.16058927916E+02 -0.67649555942E+03  0.67682412815E+03  0.25500000000E-02 0.  1.
         -2    1    1    2  502    0  0.13666358462E+02  0.16058927916E+02 -0.25687778169E+03  0.25774183450E+03  0.25500000000E-02 0.  1.
<mgrwt>
<rscale>  0 0.47198990E+02</rscale>
<asrwt>0</asrwt>
<pdfrwt beam="2">  1        1 0.14368647E+00 0.47198990E+02</pdfrwt>
<pdfrwt beam="1">  1       -1 0.91740866E-04 0.47198990E+02</pdfrwt>
<totfact> 0.74355878E+05</totfact>
</mgrwt>
</event>
<event>
 4    1  0.1893769E-002  0.4997736E+02  0.7818608E-02  0.1445464E+00
          1   -1    0    0    0  501  0.00000000000E+00  0.00000000000E+00  0.18388056999E+04  0.18388056999E+04  0.50400000000E-02 0.  1.
         -1   -1    0    0  501    0 -0.00000000000E+00 -0.00000000000E+00 -0.33956802986E+00  0.33960543062E+00  0.50400000000E-02 0.  1.
          2    1    1    2    0  502 -0.18923134292E+02  0.13732525928E+02  0.59471437328E+03  0.59517380072E+03  0.25500000000E-02 0. -1.
         -2    1    1    2  502    0  0.18923134292E+02 -0.13732525928E+02  0.12437517586E+04  0.12439715047E+04  0.25500000000E-02 0. -1.
<mgrwt>
<rscale>  0 0.49977356E+02</rscale>
<asrwt>0</asrwt>
<pdfrwt beam="1">  1        1 0.28290311E+00 0.49977356E+02</pdfrwt>
<pdfrwt beam="2">  1       -1 0.52242280E-04 0.49977356E+02</pdfrwt>
<totfact> 0.42216577E+05</totfact>
</mgrwt>
</event>
<event>
 4    1  0.1893769E-002  0.6994129E+02  0.7818608E-02  0.1360293E+00
         -1   -1    0    0  501    0 -0.00000000000E+00  0.00000000000E+00  0.14968431119E+03  0.14968431128E+03  0.50400000000E-02 0. -1.
          1   -1    0    0    0  501  0.00000000000E+00 -0.00000000000E+00 -0.81701669711E+01  0.81701685257E+01  0.50400000000E-02 0. -1.
          2    1    1    2    0  502 -0.33179651896E+02 -0.10100913638E+02  0.60656544739E+02  0.69872270484E+02  0.25500000000E-02 0. -1.
         -2    1    1    2  502    0  0.33179651896E+02  0.10100913638E+02  0.80857599484E+02  0.87982209322E+02  0.25500000000E-02 0. -1.
<mgrwt>
<rscale>  0 0.69941288E+02</rscale>
<asrwt>0</asrwt>
<pdfrwt beam="2">  1        1 0.12569490E-02 0.69941288E+02</pdfrwt>
<pdfrwt beam="1">  1       -1 0.23028354E-01 0.69941288E+02</pdfrwt>
<totfact> 0.14806659E+05</totfact>
</mgrwt>
</event>
<event>
 4    1  0.1893769E-002  0.6965175E+02  0.7818608E-02  0.1361281E+00
         -1   -1    0    0  501    0 -0.00000000000E+00  0.00000000000E+00  0.13049239252E+01  0.13049336582E+01  0.50400000000E-02 0.  1.
          1   -1    0    0    0  501  0.00000000000E+00 -0.00000000000E+00 -0.92943134607E+03  0.92943134608E+03  0.50400000000E-02 0.  1.
          2    1    1    2    0  502  0.87446543508E+01  0.20506684355E+02 -0.10653922422E+03  0.10884667834E+03  0.25500000000E-02 0. -1.
         -2    1    1    2  502    0 -0.87446543508E+01 -0.20506684355E+02 -0.82158719793E+03  0.82188960140E+03  0.25500000000E-02 0. -1.
<mgrwt>
<rscale>  0 0.69651755E+02</rscale>
<asrwt>0</asrwt>
<pdfrwt beam="2">  1        1 0.14298891E+00 0.69651755E+02</pdfrwt>
<pdfrwt beam="1">  1       -1 0.20075902E-03 0.69651755E+02</pdfrwt>
<totfact> 0.27927837E+05</totfact>
</mgrwt>
</event>
<event>
 4    1  0.1893769E-002  0.6669987E+02  0.7818608E-02  0.1371689E+00
         -1   -1    0    0  501    0 -0.00000000000E+00  0.00000000000E+00  0.72058033954E+00  0.72059796512E+00  0.50400000000E-02 0. -1.
          1   -1    0    0    0  501  0.00000000000E+00 -0.00000000000E+00 -0.15434845941E+04  0.15434845941E+04  0.50400000000E-02 0. -1.
          2    1    1    2    0  502  0.20855993649E+02 -0.19176519607E+02 -0.11786827090E+04  0.11790231719E+04  0.25500000000E-02 0. -1.
         -2    1    1    2  502    0 -0.20855993649E+02  0.19176519607E+02 -0.36408130480E+03  0.36518202021E+03  0.25500000000E-02 0. -1.
<mgrwt>
<rscale>  0 0.66699873E+02</rscale>
<asrwt>0</asrwt>
<pdfrwt beam="2">  1        1 0.23745652E+00 0.66699873E+02</pdfrwt>
<pdfrwt beam="1">  1       -1 0.11086111E-03 0.66699873E+02</pdfrwt>
<totfact> 0.24385295E+05</totfact>
</mgrwt>
</event>
<event>
 4    1  0.1893769E-002  0.4519831E+02  0.7818608E-02  0.1473107E+00
         -1   -1    0    0  501    0 -0.00000000000E+00  0.00000000000E+00  0.44114176590E+01  0.44114205380E+01  0.50400000000E-02 0. -1.
          1   -1    0    0    0  501  0.00000000000E+00 -0.00000000000E+00 -0.11577267792E+03  0.11577267803E+03  0.50400000000E-02 0. -1.
          2    1    1    2    0  502  0.15077219623E+02 -0.14809335758E+02 -0.34394551729E+02  0.40368603794E+02  0.25500000000E-02 0.  1.
         -2    1    1    2  502    0 -0.15077219623E+02  0.14809335758E+02 -0.76966708528E+02  0.79815494770E+02  0.25500000000E-02 0.  1.
<mgrwt>
<rscale>  0 0.45198310E+02</rscale>
<asrwt>0</asrwt>
<pdfrwt beam="2">  1        1 0.17811179E-01 0.45198310E+02</pdfrwt>
<pdfrwt beam="1">  1       -1 0.67867996E-03 0.45198310E+02</pdfrwt>
<totfact> 0.66343093E+05</totfact>
</mgrwt>
</event>
<event>
 4    1  0.1893769E-002  0.5025669E+02  0.7818608E-02  0.1443962E+00
         -1   -1    0    0  501    0 -0.00000000000E+00  0.00000000000E+00  0.81412387761E+03  0.81412387762E+03  0.50400000000E-02 0. -1.
          1   -1    0    0    0  501  0.00000000000E+00 -0.00000000000E+00 -0.77559091751E+00  0.77560729298E+00  0.50400000000E-02 0. -1.
          2    1    1    2    0  502  0.12968883086E+02 -0.16930961004E+02  0.19120439726E+03  0.19239015283E+03  0.25500000000E-02 0. -1.
         -2    1    1    2  502    0 -0.12968883086E+02  0.16930961004E+02  0.62214388943E+03  0.62250933208E+03  0.25500000000E-02 0. -1.
<mgrwt>
<rscale>  0 0.50256692E+02</rscale>
<asrwt>0</asrwt>
<pdfrwt beam="2">  1        1 0.11932294E-03 0.50256692E+02</pdfrwt>
<pdfrwt beam="1">  1       -1 0.12524982E+00 0.50256692E+02</pdfrwt>
<totfact> 0.14713379E+05</totfact>
</mgrwt>
</event>
<event>
 4    1  0.1893769E-002  0.5515175E+02  0.7818608E-02  0.1419383E+00
          1   -1    0    0    0  501  0.00000000000E+00  0.00000000000E+00  0.44094090189E+01  0.44094118993E+01  0.50400000000E-02 0. -1.
         -1   -1    0    0  501    0 -0.00000000000E+00 -0.00000000000E+00 -0.17245589438E+03  0.17245589445E+03  0.50400000000E-02 0. -1.
          2    1    1    2    0  502 -0.25358137503E+02  0.71572729296E+01 -0.11010906543E+03  0.11321779008E+03  0.25500000000E-02 0.  1.
         -2    1    1    2  502    0  0.25358137503E+02 -0.71572729296E+01 -0.57937419929E+02  0.63647516275E+02  0.25500000000E-02 0.  1.
<mgrwt>
<rscale>  0 0.55151748E+02</rscale>
<asrwt>0</asrwt>
<pdfrwt beam="1">  1        1 0.67837098E-03 0.55151748E+02</pdfrwt>
<pdfrwt beam="2">  1       -1 0.26531671E-01 0.55151748E+02</pdfrwt>
<totfact> 0.26105089E+05</totfact>
</mgrwt>
</event>
<event>
 4    1  0.1893769E-002  0.4472342E+02  0.7818608E-02  0.1476076E+00
         -1   -1    0    0  501    0 -0.00000000000E+00  0.00000000000E+00  0.91058423764E+01  0.91058437712E+01  0.50400000000E-02 0.  1.
          1   -1    0    0    0  501  0.00000000000E+00 -0.00000000000E+00 -0.54914857631E+02  0.54914857862E+02  0.50400000000E-02 0.  1.
          2    1    1    2    0  502  0.14234550373E+02 -0.14470069856E+02 -0.36336092215E+02  0.41621111830E+02  0.25500000000E-02 0. -1.
         -2    1    1    2  502    0 -0.14234550373E+02  0.14470069856E+02 -0.94729230388E+01  0.22399589803E+02  0.25500000000E-02 0. -1.
<mgrwt>
<rscale>  0 0.44723421E+02</rscale>
<asrwt>0</asrwt>
<pdfrwt beam="2">  1        1 0.84484395E-02 0.44723421E+02</pdfrwt>
<pdfrwt beam="1">  1       -1 0.14008990E-02 0.44723421E+02</pdfrwt>
<totfact> 0.62409919E+05</totfact>
</mgrwt>
</event>
<event>
 4    1  0.1893769E-002  0.4436478E+02  0.7818608E-02  0.1478347E+00
          1   -1    0    0    0  501  0.00000000000E+00  0.00000000000E+00  0.39929683861E+02  0.39929684179E+02  0.50400000000E-02 0.  1.
         -1   -1    0    0  501    0 -0.00000000000E+00 -0.00000000000E+00 -0.12323125318E+02  0.12323126349E+02  0.50400000000E-02 0.  1.
          2    1    1    2    0  502  0.49079705616E+01 -0.20963157571E+02  0.20092812926E+02  0.29449334257E+02  0.25500000000E-02 0. -1.
         -2    1    1    2  502    0 -0.49079705616E+01  0.20963157571E+02  0.75137456164E+01  0.22803476271E+02  0.25500000000E-02 0. -1.
<mgrwt>
<rscale>  0 0.44364785E+02</rscale>
<asrwt>0</asrwt>
<pdfrwt beam="1">  1        1 0.61430284E-02 0.44364785E+02</pdfrwt>
<pdfrwt beam="2">  1       -1 0.18958655E-02 0.44364785E+02</pdfrwt>
<totfact> 0.61859520E+05</totfact>
</mgrwt>
</event>
<event>
 4    1  0.1893769E-002  0.4664683E+02  0.7818608E-02  0.1464315E+00
         -1   -1    0    0  501    0 -0.00000000000E+00  0.00000000000E+00  0.91953410819E+00  0.91954792029E+00  0.50400000000E-02 0.  1.
          1   -1    0    0    0  501  0.00000000000E+00 -0.00000000000E+00 -0.59157959579E+03  0.59157959581E+03  0.50400000000E-02 0.  1.
          2    1    1    2    0  502 -0.10059460197E+02  0.21030845700E+02 -0.30424392650E+03  0.30513579932E+03  0.25500000000E-02 0.  1.
         -2    1    1    2  502    0  0.10059460197E+02 -0.21030845700E+02 -0.28641613518E+03  0.28736334441E+03  0.25500000000E-02 0.  1.
<mgrwt>
<rscale>  0 0.46646831E+02</rscale>
<asrwt>0</asrwt>
<pdfrwt beam="2">  1        1 0.91011942E-01 0.46646831E+02</pdfrwt>
<pdfrwt beam="1">  1       -1 0.14146832E-03 0.46646831E+02</pdfrwt>
<totfact> 0.78456472E+05</totfact>
</mgrwt>
</event>
<event>
 4    1  0.1893769E-002  0.8254411E+02  0.7818608E-02  0.1321983E+00
         -1   -1    0    0  501    0 -0.00000000000E+00  0.00000000000E+00  0.31146202000E+03  0.31146202004E+03  0.50400000000E-02 0. -1.
          1   -1    0    0    0  501  0.00000000000E+00 -0.00000000000E+00 -0.54689887117E+01  0.54689910341E+01  0.50400000000E-02 0. -1.
          2    1    1    2    0  502 -0.23989109721E+02  0.32008881052E+02  0.11396583628E+03  0.12078185996E+03  0.25500000000E-02 0. -1.
         -2    1    1    2  502    0  0.23989109721E+02 -0.32008881052E+02  0.19202719501E+03  0.19614915111E+03  0.25500000000E-02 0. -1.
<mgrwt>
<rscale>  0 0.82544113E+02</rscale>
<asrwt>0</asrwt>
<pdfrwt beam="2">  1        1 0.84138343E-03 0.82544113E+02</pdfrwt>
<pdfrwt beam="1">  1       -1 0.47917213E-01 0.82544113E+02</pdfrwt>
<totfact> 0.77342536E+04</totfact>
</mgrwt>
</event>
<event>
 4    1  0.1893769E-002  0.5537539E+02  0.7818608E-02  0.1418332E+00
         -1   -1    0    0  501    0 -0.00000000000E+00  0.00000000000E+00  0.41149357072E+01  0.41149387937E+01  0.50400000000E-02 0. -1.
          1   -1    0    0    0  501  0.00000000000E+00 -0.00000000000E+00 -0.18629895474E+03  0.18629895481E+03  0.50400000000E-02 0. -1.
          2    1    1    2    0  502  0.25900123241E+02  0.78242506151E+01 -0.70873375306E+02  0.75862181720E+02  0.25500000000E-02 0.  1.
         -2    1    1    2  502    0 -0.25900123241E+02 -0.78242506151E+01 -0.11131064373E+03  0.11455171189E+03  0.25500000000E-02 0.  1.
<mgrwt>
<rscale>  0 0.55375392E+02</rscale>
<asrwt>0</asrwt>
<pdfrwt beam="2">  1        1 0.28661371E-01 0.55375392E+02</pdfrwt>
<pdfrwt beam="1">  1       -1 0.63306742E-03 0.55375392E+02</pdfrwt>
<totfact> 0.42922769E+05</totfact>
</mgrwt>
</event>
<event>
 4    1  0.1893769E-002  0.4516262E+02  0.7818608E-02  0.1473329E+00
          1   -1    0    0    0  501  0.00000000000E+00  0.00000000000E+00  0.77387563774E+03  0.77387563776E+03  0.50400000000E-02 0. -1.
         -1   -1    0    0  501    0 -0.00000000000E+00 -0.00000000000E+00 -0.65890185943E+00  0.65892113486E+00  0.50400000000E-02 0. -1.
          2    1    1    2    0  502 -0.22324756702E+02  0.14182819167E+01  0.43949371912E+03  0.44006264944E+03  0.25500000000E-02 0. -1.
         -2    1    1    2  502    0  0.22324756702E+02 -0.14182819167E+01  0.33372301676E+03  0.33447190945E+03  0.25500000000E-02 0. -1.
<mgrwt>
<rscale>  0 0.45162620E+02</rscale>
<asrwt>0</asrwt>
<pdfrwt beam="1">  1        1 0.11905767E+00 0.45162620E+02</pdfrwt>
<pdfrwt beam="2">  1       -1 0.10137110E-03 0.45162620E+02</pdfrwt>
<totfact> 0.84930409E+05</totfact>
</mgrwt>
</event>
<event>
 4    1  0.1893769E-002  0.5254133E+02  0.7818608E-02  0.1432097E+00
         -1   -1    0    0  501    0 -0.00000000000E+00  0.00000000000E+00  0.75168495279E+00  0.75170184904E+00  0.50400000000E-02 0. -1.
          1   -1    0    0    0  501  0.00000000000E+00 -0.00000000000E+00 -0.91812423417E+03  0.91812423419E+03  0.50400000000E-02 0. -1.
          2    1    1    2    0  502  0.22378233117E+02  0.88525951215E+01 -0.27443696009E+03  0.27549010659E+03  0.25500000000E-02 0. -1.
         -2    1    1    2  502    0 -0.22378233117E+02 -0.88525951215E+01 -0.64293558913E+03  0.64338582945E+03  0.25500000000E-02 0. -1.
<mgrwt>
<rscale>  0 0.52541334E+02</rscale>
<asrwt>0</asrwt>
<pdfrwt beam="2">  1        1 0.14124899E+00 0.52541334E+02</pdfrwt>
<pdfrwt beam="1">  1       -1 0.11564587E-03 0.52541334E+02</pdfrwt>
<totfact> 0.57183646E+05</totfact>
</mgrwt>
</event>
<event>
 4    1  0.1893769E-002  0.7897466E+02  0.7818608E-02  0.1331987E+00
          1   -1    0    0    0  501  0.00000000000E+00  0.00000000000E+00  0.12109884346E+04  0.12109884346E+04  0.50400000000E-02 0.  1.
         -1   -1    0    0  501    0 -0.00000000000E+00 -0.00000000000E+00 -0.12875789900E+01  0.12875888540E+01  0.50400000000E-02 0.  1.
          2    1    1    2    0  502 -0.38044757157E+02  0.97910129026E+01  0.54348467047E+03  0.54490261013E+03  0.25500000000E-02 0. -1.
         -2    1    1    2  502    0  0.38044757157E+02 -0.97910129026E+01  0.66621618517E+03  0.66737341337E+03  0.25500000000E-02 0. -1.
<mgrwt>
<rscale>  0 0.78974661E+02</rscale>
<asrwt>0</asrwt>
<pdfrwt beam="1">  1        1 0.18630651E+00 0.78974661E+02</pdfrwt>
<pdfrwt beam="2">  1       -1 0.19808920E-03 0.78974661E+02</pdfrwt>
<totfact> 0.18485975E+05</totfact>
</mgrwt>
</event>
<event>
 4    1  0.1893769E-002  0.5510706E+02  0.7818608E-02  0.1419593E+00
         -1   -1    0    0  501    0 -0.00000000000E+00  0.00000000000E+00  0.37503298132E+01  0.37503331997E+01  0.50400000000E-02 0.  1.
          1   -1    0    0    0  501  0.00000000000E+00 -0.00000000000E+00 -0.20243464009E+03  0.20243464015E+03  0.50400000000E-02 0.  1.
          2    1    1    2    0  502  0.30541247337E+01 -0.24698986392E+02 -0.55098700796E+02  0.60458534903E+02  0.25500000000E-02 0. -1.
         -2    1    1    2  502    0 -0.30541247337E+01  0.24698986392E+02 -0.14358560948E+03  0.14572643845E+03  0.25500000000E-02 0. -1.
<mgrwt>
<rscale>  0 0.55107060E+02</rscale>
<asrwt>0</asrwt>
<pdfrwt beam="2">  1        1 0.31143783E-01 0.55107060E+02</pdfrwt>
<pdfrwt beam="1">  1       -1 0.57697424E-03 0.55107060E+02</pdfrwt>
<totfact> 0.44089192E+05</totfact>
</mgrwt>
</event>
<event>
 4    1  0.1893769E-002  0.4453904E+02  0.7818608E-02  0.1477240E+00
          1   -1    0    0    0  501  0.00000000000E+00  0.00000000000E+00  0.65946582239E+02  0.65946582432E+02  0.50400000000E-02 0. -1.
         -1   -1    0    0  501    0 -0.00000000000E+00 -0.00000000000E+00 -0.75201994676E+01  0.75202011565E+01  0.50400000000E-02 0. -1.
          2    1    1    2    0  502  0.49071000153E+01  0.21721451616E+02  0.28925477262E+02  0.36504579606E+02  0.25500000000E-02 0. -1.
         -2    1    1    2  502    0 -0.49071000153E+01 -0.21721451616E+02  0.29500905510E+02  0.36962203983E+02  0.25500000000E-02 0. -1.
<mgrwt>
<rscale>  0 0.44539040E+02</rscale>
<asrwt>0</asrwt>
<pdfrwt beam="1">  1        1 0.10145628E-01 0.44539040E+02</pdfrwt>
<pdfrwt beam="2">  1       -1 0.11569539E-02 0.44539040E+02</pdfrwt>
<totfact> 0.64243319E+05</totfact>
</mgrwt>
</event>
<event>
 4    1  0.1893769E-002  0.4169391E+02  0.7818608E-02  0.1496104E+00
         -1   -1    0    0  501    0 -0.00000000000E+00  0.00000000000E+00  0.13591266145E+02  0.13591267080E+02  0.50400000000E-02 0. -1.
          1   -1    0    0    0  501  0.00000000000E+00 -0.00000000000E+00 -0.31976092281E+02  0.31976092679E+02  0.50400000000E-02 0. -1.
          2    1    1    2    0  502  0.20448749320E+02  0.37160038265E+01 -0.10966678419E+02  0.23499533512E+02  0.25500000000E-02 0. -1.
         -2    1    1    2  502    0 -0.20448749320E+02 -0.37160038265E+01 -0.74181477168E+01  0.22067826247E+02  0.25500000000E-02 0. -1.
<mgrwt>
<rscale>  0 0.41693914E+02</rscale>
<asrwt>0</asrwt>
<pdfrwt beam="2">  1        1 0.49193989E-02 0.41693914E+02</pdfrwt>
<pdfrwt beam="1">  1       -1 0.20909641E-02 0.41693914E+02</pdfrwt>
<totfact> 0.71015908E+05</totfact>
</mgrwt>
</event>
<event>
 4    1  0.1893769E-002  0.4652146E+02  0.7818608E-02  0.1465061E+00
          1   -1    0    0    0  501  0.00000000000E+00  0.00000000000E+00  0.99970733349E+03  0.99970733351E+03  0.50400000000E-02 0. -1.
         -1   -1    0    0  501    0 -0.00000000000E+00 -0.00000000000E+00 -0.54120818800E+00  0.54123165498E+00  0.50400000000E-02 0. -1.
          2    1    1    2    0  502 -0.11120412818E+02  0.19905082108E+02  0.59854668112E+03  0.59898080550E+03  0.25500000000E-02 0.  1.
         -2    1    1    2  502    0  0.11120412818E+02 -0.19905082108E+02  0.40061944419E+03  0.40126775966E+03  0.25500000000E-02 0.  1.
<mgrwt>
<rscale>  0 0.46521459E+02</rscale>
<asrwt>0</asrwt>
<pdfrwt beam="1">  1        1 0.15379939E+00 0.46521459E+02</pdfrwt>
<pdfrwt beam="2">  1       -1 0.83265547E-04 0.46521459E+02</pdfrwt>
<totfact> 0.75854904E+05</totfact>
</mgrwt>
</event>
<event>
 4    1  0.1893769E-002  0.5015502E+02  0.7818608E-02  0.1444507E+00
          1   -1    0    0    0  501  0.00000000000E+00  0.00000000000E+00  0.28731353312E+03  0.28731353317E+03  0.50400000000E-02 0.  1.
         -1   -1    0    0  501    0 -0.00000000000E+00 -0.00000000000E+00 -0.21888309406E+01  0.21888367431E+01  0.50400000000E-02 0.  1.
          2    1    1    2    0  502  0.40037506433E+01 -0.24615570810E+02  0.15775226331E+03  0.15971140514E+03  0.25500000000E-02 0. -1.
         -2    1    1    2  502    0 -0.40037506433E+01  0.24615570810E+02  0.12737243887E+03  0.12979096477E+03  0.25500000000E-02 0. -1.
<mgrwt>
<rscale>  0 0.50155024E+02</rscale>
<asrwt>0</asrwt>
<pdfrwt beam="1">  1        1 0.44202029E-01 0.50155024E+02</pdfrwt>
<pdfrwt beam="2">  1       -1 0.33674408E-03 0.50155024E+02</pdfrwt>
<totfact> 0.59443736E+05</totfact>
</mgrwt>
</event>
<event>
 4    1  0.1893769E-002  0.5071891E+02  0.7818608E-02  0.1441502E+00
          1   -1    0    0    0  501  0.00000000000E+00  0.00000000000E+00  0.29028586386E+02  0.29028586823E+02  0.50400000000E-02 0.  1.
         -1   -1    0    0  501    0 -0.00000000000E+00 -0.00000000000E+00 -0.22154090897E+02  0.22154091470E+02  0.50400000000E-02 0.  1.
          2    1    1    2    0  502  0.24848634664E+02  0.27609075714E+01  0.77216198354E+01  0.26166785716E+02  0.25500000000E-02 0.  1.
         -2    1    1    2  502    0 -0.24848634664E+02 -0.27609075714E+01 -0.84712434649E+00  0.25015892578E+02  0.25500000000E-02 0.  1.
<mgrwt>
<rscale>  0 0.50718910E+02</rscale>
<asrwt>0</asrwt>
<pdfrwt beam="1">  1        1 0.44659364E-02 0.50718910E+02</pdfrwt>
<pdfrwt beam="2">  1       -1 0.34083218E-02 0.50718910E+02</pdfrwt>
<totfact> 0.42718428E+05</totfact>
</mgrwt>
</event>
<event>
 4    1  0.1893769E-002  0.5620795E+02  0.7818608E-02  0.1414471E+00
          1   -1    0    0    0  501  0.00000000000E+00  0.00000000000E+00  0.28334650511E+03  0.28334650516E+03  0.50400000000E-02 0.  1.
         -1   -1    0    0  501    0 -0.00000000000E+00 -0.00000000000E+00 -0.27875151038E+01  0.27875196601E+01  0.50400000000E-02 0.  1.
          2    1    1    2    0  502 -0.12084742655E+02 -0.23839404476E+02  0.18450508559E+03  0.18643091167E+03  0.25500000000E-02 0. -1.
         -2    1    1    2  502    0  0.12084742655E+02  0.23839404476E+02  0.96053904421E+02  0.99703113150E+02  0.25500000000E-02 0. -1.
<mgrwt>
<rscale>  0 0.56207947E+02</rscale>
<asrwt>0</asrwt>
<pdfrwt beam="1">  1        1 0.43591775E-01 0.56207947E+02</pdfrwt>
<pdfrwt beam="2">  1       -1 0.42884878E-03 0.56207947E+02</pdfrwt>
<totfact> 0.44533620E+05</totfact>
</mgrwt>
</event>
<event>
 4    1  0.1893769E-002  0.4336000E+02  0.7818608E-02  0.1484847E+00
         -1   -1    0    0  501    0 -0.00000000000E+00  0.00000000000E+00  0.23306780915E+04  0.23306780916E+04  0.50400000000E-02 0. -1.
          1   -1    0    0    0  501  0.00000000000E+00 -0.00000000000E+00 -0.20163612264E+00  0.20169910152E+00  0.50400000000E-02 0. -1.
          2    1    1    2    0  502 -0.11859624979E+02 -0.18050196771E+02  0.10637824951E+04  0.10640017186E+04  0.25500000000E-02 0. -1.
         -2    1    1    2  502    0  0.11859624979E+02  0.18050196771E+02  0.12666939603E+04  0.12668780720E+04  0.25500000000E-02 0. -1.
<mgrwt>
<rscale>  0 0.43359995E+02</rscale>
<asrwt>0</asrwt>
<pdfrwt beam="2">  1        1 0.31025359E-04 0.43359995E+02</pdfrwt>
<pdfrwt beam="1">  1       -1 0.35857080E+00 0.43359995E+02</pdfrwt>
<totfact> 0.28358688E+04</totfact>
</mgrwt>
</event>
<event>
 4    1  0.1893769E-002  0.5274800E+02  0.7818608E-02  0.1431059E+00
          1   -1    0    0    0  501  0.00000000000E+00  0.00000000000E+00  0.20366478669E+01  0.20366541030E+01  0.50400000000E-02 0.  1.
         -1   -1    0    0  501    0 -0.00000000000E+00 -0.00000000000E+00 -0.34153510993E+03  0.34153510997E+03  0.50400000000E-02 0.  1.
          2    1    1    2    0  502  0.80173986904E+01  0.21765248303E+02 -0.87984443338E+02  0.90990477477E+02  0.25500000000E-02 0. -1.
         -2    1    1    2  502    0 -0.80173986904E+01 -0.21765248303E+02 -0.25151401873E+03  0.25258128660E+03  0.25500000000E-02 0. -1.
<mgrwt>
<rscale>  0 0.52747998E+02</rscale>
<asrwt>0</asrwt>
<pdfrwt beam="1">  1        1 0.31333120E-03 0.52747998E+02</pdfrwt>
<pdfrwt beam="2">  1       -1 0.52543818E-01 0.52747998E+02</pdfrwt>
<totfact> 0.23281978E+05</totfact>
</mgrwt>
</event>
<event>
 4    1  0.1893769E-002  0.4441184E+02  0.7818608E-02  0.1478047E+00
          1   -1    0    0    0  501  0.00000000000E+00  0.00000000000E+00  0.32333604322E+02  0.32333604715E+02  0.50400000000E-02 0.  1.
         -1   -1    0    0  501    0 -0.00000000000E+00 -0.00000000000E+00 -0.15250476197E+02  0.15250477030E+02  0.50400000000E-02 0.  1.
          2    1    1    2    0  502 -0.64854636066E+01 -0.21185443325E+02  0.10137466042E+02  0.24364984533E+02  0.25500000000E-02 0. -1.
         -2    1    1    2  502    0  0.64854636066E+01  0.21185443325E+02  0.69456620821E+01  0.23219097211E+02  0.25500000000E-02 0. -1.
<mgrwt>
<rscale>  0 0.44411840E+02</rscale>
<asrwt>0</asrwt>
<pdfrwt beam="1">  1        1 0.49744008E-02 0.44411840E+02</pdfrwt>
<pdfrwt beam="2">  1       -1 0.23462272E-02 0.44411840E+02</pdfrwt>
<totfact> 0.60609969E+05</totfact>
</mgrwt>
</event>
<event>
 4    1  0.1893769E-002  0.4811389E+02  0.7818608E-02  0.1455788E+00
          1   -1    0    0    0  501  0.00000000000E+00  0.00000000000E+00  0.36721225414E+03  0.36721225418E+03  0.50400000000E-02 0. -1.
         -1   -1    0    0  501    0 -0.00000000000E+00 -0.00000000000E+00 -0.15760236854E+01  0.15760317442E+01  0.50400000000E-02 0. -1.
          2    1    1    2    0  502  0.11809020172E+02  0.19057584799E+02  0.24967970218E+03  0.25068425994E+03  0.25500000000E-02 0. -1.
         -2    1    1    2  502    0 -0.11809020172E+02 -0.19057584799E+02  0.11595652828E+03  0.11810402598E+03  0.25500000000E-02 0. -1.
<mgrwt>
<rscale>  0 0.48113894E+02</rscale>
<asrwt>0</asrwt>
<pdfrwt beam="1">  1        1 0.56494195E-01 0.48113894E+02</pdfrwt>
<pdfrwt beam="2">  1       -1 0.24246580E-03 0.48113894E+02</pdfrwt>
<totfact> 0.68697216E+05</totfact>
</mgrwt>
</event>
<event>
 4    1  0.1893769E-002  0.7366762E+02  0.7818608E-02  0.1348047E+00
          1   -1    0    0    0  501  0.00000000000E+00  0.00000000000E+00  0.12048356180E+02  0.12048357234E+02  0.50400000000E-02 0. -1.
         -1   -1    0    0  501    0 -0.00000000000E+00 -0.00000000000E+00 -0.11260702914E+03  0.11260702925E+03  0.50400000000E-02 0. -1.
          2    1    1    2    0  502  0.28557808804E+02 -0.10420454014E+02 -0.85473878593E+02  0.90718896785E+02  0.25500000000E-02 0.  1.
         -2    1    1    2  502    0 -0.28557808804E+02  0.10420454014E+02 -0.15084794364E+02  0.33936489699E+02  0.25500000000E-02 0.  1.
<mgrwt>
<rscale>  0 0.73667623E+02</rscale>
<asrwt>0</asrwt>
<pdfrwt beam="1">  1        1 0.18535934E-02 0.73667623E+02</pdfrwt>
<pdfrwt beam="2">  1       -1 0.17324158E-01 0.73667623E+02</pdfrwt>
<totfact> 0.13753578E+05</totfact>
</mgrwt>
</event>
<event>
 4    1  0.1893769E-002  0.5661961E+02  0.7818608E-02  0.1412591E+00
         -1   -1    0    0  501    0 -0.00000000000E+00  0.00000000000E+00  0.22538585089E+01  0.22538641440E+01  0.50400000000E-02 0. -1.
          1   -1    0    0    0  501  0.00000000000E+00 -0.00000000000E+00 -0.35558757332E+03  0.35558757336E+03  0.50400000000E-02 0. -1.
          2    1    1    2    0  502 -0.79363763526E+01  0.24457596895E+02 -0.25152332335E+03  0.25283421902E+03  0.25500000000E-02 0.  1.
         -2    1    1    2  502    0  0.79363763526E+01 -0.24457596895E+02 -0.10181039147E+03  0.10500721848E+03  0.25500000000E-02 0.  1.
<mgrwt>
<rscale>  0 0.56619611E+02</rscale>
<asrwt>0</asrwt>
<pdfrwt beam="2">  1        1 0.54705737E-01 0.56619611E+02</pdfrwt>
<pdfrwt beam="1">  1       -1 0.34674818E-03 0.56619611E+02</pdfrwt>
<totfact> 0.45475840E+05</totfact>
</mgrwt>
</event>
<event>
 4    1  0.1893769E-002  0.5099924E+02  0.7818608E-02  0.1440025E+00
         -1   -1    0    0  501    0 -0.00000000000E+00  0.00000000000E+00  0.40525691572E+01  0.40525722912E+01  0.50400000000E-02 0. -1.
          1   -1    0    0    0  501  0.00000000000E+00 -0.00000000000E+00 -0.16044892716E+03  0.16044892724E+03  0.50400000000E-02 0. -1.
          2    1    1    2    0  502 -0.18954418618E+02  0.97130995662E+01 -0.12342707198E+03  0.12525117322E+03  0.25500000000E-02 0. -1.
         -2    1    1    2  502    0  0.18954418618E+02 -0.97130995662E+01 -0.32969286023E+02  0.39250326313E+02  0.25500000000E-02 0. -1.
<mgrwt>
<rscale>  0 0.50999241E+02</rscale>
<asrwt>0</asrwt>
<pdfrwt beam="2">  1        1 0.24684446E-01 0.50999241E+02</pdfrwt>
<pdfrwt beam="1">  1       -1 0.62347255E-03 0.50999241E+02</pdfrwt>
<totfact> 0.51538629E+05</totfact>
</mgrwt>
</event>
<event>
 4    1  0.1893769E-002  0.4889980E+02  0.7818608E-02  0.1451368E+00
          1   -1    0    0    0  501  0.00000000000E+00  0.00000000000E+00  0.45663739273E+02  0.45663739551E+02  0.50400000000E-02 0.  1.
         -1   -1    0    0  501    0 -0.00000000000E+00 -0.00000000000E+00 -0.13091295895E+02  0.13091296865E+02  0.50400000000E-02 0.  1.
          2    1    1    2    0  502 -0.64280165176E+01 -0.23125542782E+02  0.10690681054E+02  0.26275478934E+02  0.25500000000E-02 0. -1.
         -2    1    1    2  502    0  0.64280165176E+01  0.23125542782E+02  0.21881762325E+02  0.32479557482E+02  0.25500000000E-02 0. -1.
<mgrwt>
<rscale>  0 0.48899798E+02</rscale>
<asrwt>0</asrwt>
<pdfrwt beam="1">  1        1 0.70251909E-02 0.48899798E+02</pdfrwt>
<pdfrwt beam="2">  1       -1 0.20140456E-02 0.48899798E+02</pdfrwt>
<totfact> 0.48915224E+05</totfact>
</mgrwt>
</event>
<event>
 4    1  0.1893769E-002  0.5197627E+02  0.7818608E-02  0.1434965E+00
          1   -1    0    0    0  501  0.00000000000E+00  0.00000000000E+00  0.53099974684E+03  0.53099974687E+03  0.50400000000E-02 0.  1.
         -1   -1    0    0  501    0 -0.00000000000E+00 -0.00000000000E+00 -0.12719036147E+01  0.12719136003E+01  0.50400000000E-02 0.  1.
          2    1    1    2    0  502  0.24794370651E+02  0.62002242311E+01  0.21663531883E+03  0.21813772019E+03  0.25500000000E-02 0. -1.
         -2    1    1    2  502    0 -0.24794370651E+02 -0.62002242311E+01  0.31309252440E+03  0.31413394028E+03  0.25500000000E-02 0. -1.
<mgrwt>
<rscale>  0 0.51976270E+02</rscale>
<asrwt>0</asrwt>
<pdfrwt beam="1">  1        1 0.81692085E-01 0.51976270E+02</pdfrwt>
<pdfrwt beam="2">  1       -1 0.19567869E-03 0.51976270E+02</pdfrwt>
<totfact> 0.59525922E+05</totfact>
</mgrwt>
</event>
<event>
 4    1  0.1893769E-002  0.4911323E+02  0.7818608E-02  0.1450184E+00
          1   -1    0    0    0  501  0.00000000000E+00  0.00000000000E+00  0.54706906118E+02  0.54706906350E+02  0.50400000000E-02 0. -1.
         -1   -1    0    0  501    0 -0.00000000000E+00 -0.00000000000E+00 -0.11022872821E+02  0.11022873973E+02  0.50400000000E-02 0. -1.
          2    1    1    2    0  502  0.22349964269E+02 -0.22330823963E-01  0.82261196024E+01  0.23815760574E+02  0.25500000000E-02 0.  1.
         -2    1    1    2  502    0 -0.22349964269E+02  0.22330823963E-01  0.35457913695E+02  0.41914019750E+02  0.25500000000E-02 0.  1.
<mgrwt>
<rscale>  0 0.49113229E+02</rscale>
<asrwt>0</asrwt>
<pdfrwt beam="1">  1        1 0.84164472E-02 0.49113229E+02</pdfrwt>
<pdfrwt beam="2">  1       -1 0.16958267E-02 0.49113229E+02</pdfrwt>
<totfact> 0.49241910E+05</totfact>
</mgrwt>
</event>
<event>
 4    1  0.1893769E-002  0.4621737E+02  0.7818608E-02  0.1466882E+00
         -1   -1    0    0  501    0 -0.00000000000E+00  0.00000000000E+00  0.34028955838E+01  0.34028993161E+01  0.50400000000E-02 0.  1.
          1   -1    0    0    0  501  0.00000000000E+00 -0.00000000000E+00 -0.15692838521E+03  0.15692838530E+03  0.50400000000E-02 0.  1.
          2    1    1    2    0  502  0.21525218824E+02  0.22070392553E+01 -0.10490396979E+03  0.10711231933E+03  0.25500000000E-02 0.  1.
         -2    1    1    2  502    0 -0.21525218824E+02 -0.22070392553E+01 -0.48621519842E+02  0.53218965284E+02  0.25500000000E-02 0.  1.
<mgrwt>
<rscale>  0 0.46217365E+02</rscale>
<asrwt>0</asrwt>
<pdfrwt beam="2">  1        1 0.24142823E-01 0.46217365E+02</pdfrwt>
<pdfrwt beam="1">  1       -1 0.52352281E-03 0.46217365E+02</pdfrwt>
<totfact> 0.65689799E+05</totfact>
</mgrwt>
</event>
<event>
 4    1  0.1893769E-002  0.6189176E+02  0.7818608E-02  0.1390060E+00
         -1   -1    0    0  501    0 -0.00000000000E+00  0.00000000000E+00  0.27590082421E+02  0.27590082881E+02  0.50400000000E-02 0.  1.
          1   -1    0    0    0  501  0.00000000000E+00 -0.00000000000E+00 -0.34709845465E+02  0.34709845831E+02  0.50400000000E-02 0.  1.
          2    1    1    2    0  502 -0.18425410356E+02  0.24159426504E+02  0.23502860693E+01  0.30474538338E+02  0.25500000000E-02 0.  1.
         -2    1    1    2  502    0  0.18425410356E+02 -0.24159426504E+02 -0.94700491134E+01  0.31825390375E+02  0.25500000000E-02 0.  1.
<mgrwt>
<rscale>  0 0.61891761E+02</rscale>
<asrwt>0</asrwt>
<pdfrwt beam="2">  1        1 0.53399763E-02 0.61891761E+02</pdfrwt>
<pdfrwt beam="1">  1       -1 0.42446281E-02 0.61891761E+02</pdfrwt>
<totfact> 0.25760152E+05</totfact>
</mgrwt>
</event>
<event>
 4    1  0.1893769E-002  0.5538475E+02  0.7818608E-02  0.1418288E+00
          1   -1    0    0    0  501  0.00000000000E+00  0.00000000000E+00  0.20073563476E+01  0.20073626747E+01  0.50400000000E-02 0.  1.
         -1   -1    0    0  501    0 -0.00000000000E+00 -0.00000000000E+00 -0.38202807963E+03  0.38202807966E+03  0.50400000000E-02 0.  1.
          2    1    1    2    0  502 -0.13152760647E+02  0.19252043093E+02 -0.29361012302E+03  0.29453444726E+03  0.25500000000E-02 0. -1.
         -2    1    1    2  502    0  0.13152760647E+02 -0.19252043093E+02 -0.86410600260E+02  0.89500995077E+02  0.25500000000E-02 0. -1.
<mgrwt>
<rscale>  0 0.55384753E+02</rscale>
<asrwt>0</asrwt>
<pdfrwt beam="1">  1        1 0.30882485E-03 0.55384753E+02</pdfrwt>
<pdfrwt beam="2">  1       -1 0.58773494E-01 0.55384753E+02</pdfrwt>
<totfact> 0.19580311E+05</totfact>
</mgrwt>
</event>
<event>
 4    1  0.1893769E-002  0.7197848E+02  0.7818608E-02  0.1353491E+00
          1   -1    0    0    0  501  0.00000000000E+00  0.00000000000E+00  0.68910159972E+02  0.68910160156E+02  0.50400000000E-02 0. -1.
         -1   -1    0    0  501    0 -0.00000000000E+00 -0.00000000000E+00 -0.18795856327E+02  0.18795857002E+02  0.50400000000E-02 0. -1.
          2    1    1    2    0  502 -0.35971099670E+02  0.75812398713E+00  0.26098764775E+02  0.44448175359E+02  0.25500000000E-02 0.  1.
         -2    1    1    2  502    0  0.35971099670E+02 -0.75812398713E+00  0.24015538870E+02  0.43257841800E+02  0.25500000000E-02 0.  1.
<mgrwt>
<rscale>  0 0.71978483E+02</rscale>
<asrwt>0</asrwt>
<pdfrwt beam="1">  1        1 0.10601563E-01 0.71978483E+02</pdfrwt>
<pdfrwt beam="2">  1       -1 0.28916703E-02 0.71978483E+02</pdfrwt>
<totfact> 0.18689721E+05</totfact>
</mgrwt>
</event>
<event>
 4    1  0.1893769E-002  0.4858830E+02  0.7818608E-02  0.1453108E+00
          1   -1    0    0    0  501  0.00000000000E+00  0.00000000000E+00  0.13178360917E+04  0.13178360917E+04  0.50400000000E-02 0. -1.
         -1   -1    0    0  501    0 -0.00000000000E+00 -0.00000000000E+00 -0.44784557564E+00  0.44787393452E+00  0.50400000000E-02 0. -1.
          2    1    1    2    0  502  0.13182723977E+02 -0.18537388150E+02  0.42721942895E+03  0.42782456621E+03  0.25500000000E-02 0.  1.
         -2    1    1    2  502    0 -0.13182723977E+02  0.18537388150E+02  0.89016881713E+03  0.89045939939E+03  0.25500000000E-02 0.  1.
<mgrwt>
<rscale>  0 0.48588302E+02</rscale>
<asrwt>0</asrwt>
<pdfrwt beam="1">  1        1 0.20274148E+00 0.48588302E+02</pdfrwt>
<pdfrwt beam="2">  1       -1 0.68902363E-04 0.48588302E+02</pdfrwt>
<totfact> 0.60809042E+05</totfact>
</mgrwt>
</event>
<event>
 4    1  0.1893769E-002  0.7765464E+02  0.7818608E-02  0.1335842E+00
         -1   -1    0    0  501    0 -0.00000000000E+00  0.00000000000E+00  0.16770642400E+03  0.16770642407E+03  0.50400000000E-02 0. -1.
          1   -1    0    0    0  501  0.00000000000E+00 -0.00000000000E+00 -0.89892839106E+01  0.89892853235E+01  0.50400000000E-02 0. -1.
          2    1    1    2    0  502  0.27690016849E+02 -0.19571073311E+02  0.12239902387E+03  0.12700899572E+03  0.25500000000E-02 0. -1.
         -2    1    1    2  502    0 -0.27690016849E+02  0.19571073311E+02  0.36318116217E+02  0.49686713674E+02  0.25500000000E-02 0. -1.
<mgrwt>
<rscale>  0 0.77654640E+02</rscale>
<asrwt>0</asrwt>
<pdfrwt beam="2">  1        1 0.13829669E-02 0.77654640E+02</pdfrwt>
<pdfrwt beam="1">  1       -1 0.25800988E-01 0.77654640E+02</pdfrwt>
<totfact> 0.11025369E+05</totfact>
</mgrwt>
</event>
<event>
 4    1  0.1893769E-002  0.5288413E+02  0.7818608E-02  0.1430378E+00
         -1   -1    0    0  501    0 -0.00000000000E+00  0.00000000000E+00  0.12685505562E+01  0.12685605683E+01  0.50400000000E-02 0.  1.
          1   -1    0    0    0  501  0.00000000000E+00 -0.00000000000E+00 -0.55116446625E+03  0.55116446628E+03  0.50400000000E-02 0.  1.
          2    1    1    2    0  502 -0.18389427077E+01  0.25867311904E+02 -0.22098777623E+03  0.22250415004E+03  0.25500000000E-02 0. -1.
         -2    1    1    2  502    0  0.18389427077E+01 -0.25867311904E+02 -0.32890813947E+03  0.32992887681E+03  0.25500000000E-02 0. -1.
<mgrwt>
<rscale>  0 0.52884129E+02</rscale>
<asrwt>0</asrwt>
<pdfrwt beam="2">  1        1 0.84794343E-01 0.52884129E+02</pdfrwt>
<pdfrwt beam="1">  1       -1 0.19516284E-03 0.52884129E+02</pdfrwt>
<totfact> 0.57193251E+05</totfact>
</mgrwt>
</event>
<event>
 4    1  0.1893769E-002  0.4325832E+02  0.7818608E-02  0.1485517E+00
         -1   -1    0    0  501    0 -0.00000000000E+00  0.00000000000E+00  0.13988562565E+01  0.13988653359E+01  0.50400000000E-02 0. -1.
          1   -1    0    0    0  501  0.00000000000E+00 -0.00000000000E+00 -0.33442962121E+03  0.33442962125E+03  0.50400000000E-02 0. -1.
          2    1    1    2    0  502 -0.89785973956E+01  0.19593543052E+02 -0.18061464531E+03  0.18189604792E+03  0.25500000000E-02 0.  1.
         -2    1    1    2  502    0  0.89785973956E+01 -0.19593543052E+02 -0.15241611964E+03  0.15393243866E+03  0.25500000000E-02 0.  1.
<mgrwt>
<rscale>  0 0.43258317E+02</rscale>
<asrwt>0</asrwt>
<pdfrwt beam="2">  1        1 0.51450648E-01 0.43258317E+02</pdfrwt>
<pdfrwt beam="1">  1       -1 0.21520962E-03 0.43258317E+02</pdfrwt>
<totfact> 0.87932632E+05</totfact>
</mgrwt>
</event>
<event>
 4    1  0.1893769E-002  0.4501785E+02  0.7818608E-02  0.1474230E+00
          1   -1    0    0    0  501  0.00000000000E+00  0.00000000000E+00  0.63826525587E+01  0.63826545486E+01  0.50400000000E-02 0. -1.
         -1   -1    0    0  501    0 -0.00000000000E+00 -0.00000000000E+00 -0.79379458935E+02  0.79379459095E+02  0.50400000000E-02 0. -1.
          2    1    1    2    0  502 -0.14382565359E+02 -0.14184677687E+02 -0.17582655370E+02  0.26780833515E+02  0.25500000000E-02 0.  1.
         -2    1    1    2  502    0  0.14382565359E+02  0.14184677687E+02 -0.55414151006E+02  0.58981280129E+02  0.25500000000E-02 0.  1.
<mgrwt>
<rscale>  0 0.45017845E+02</rscale>
<asrwt>0</asrwt>
<pdfrwt beam="1">  1        1 0.98194677E-03 0.45017845E+02</pdfrwt>
<pdfrwt beam="2">  1       -1 0.12212224E-01 0.45017845E+02</pdfrwt>
<totfact> 0.49916138E+05</totfact>
</mgrwt>
</event>
<event>
 4    1  0.1893769E-002  0.4488546E+02  0.7818608E-02  0.1475058E+00
         -1   -1    0    0  501    0 -0.00000000000E+00  0.00000000000E+00  0.37894401816E+00  0.37897753298E+00  0.50400000000E-02 0.  1.
          1   -1    0    0    0  501  0.00000000000E+00 -0.00000000000E+00 -0.13290982412E+04  0.13290982412E+04  0.50400000000E-02 0.  1.
          2    1    1    2    0  502 -0.20336665022E+02 -0.85728529556E+01 -0.54367276640E+03  0.54412052955E+03  0.25500000000E-02 0. -1.
         -2    1    1    2  502    0  0.20336665022E+02  0.85728529556E+01 -0.78504653082E+03  0.78535668922E+03  0.25500000000E-02 0. -1.
<mgrwt>
<rscale>  0 0.44885459E+02</rscale>
<asrwt>0</asrwt>
<pdfrwt beam="2">  1        1 0.20447292E+00 0.44885459E+02</pdfrwt>
<pdfrwt beam="1">  1       -1 0.58302723E-04 0.44885459E+02</pdfrwt>
<totfact> 0.73590689E+05</totfact>
</mgrwt>
</event>
<event>
 4    1  0.1893769E-002  0.1476385E+03  0.7818608E-02  0.1203405E+00
         -1   -1    0    0  501    0 -0.00000000000E+00  0.00000000000E+00  0.37297395364E+02  0.37297395705E+02  0.50400000000E-02 0.  1.
          1   -1    0    0    0  501  0.00000000000E+00 -0.00000000000E+00 -0.14610355303E+03  0.14610355312E+03  0.50400000000E-02 0.  1.
          2    1    1    2    0  502 -0.41740031147E+02  0.27932064157E+02  0.12802030506E+02  0.51829744354E+02  0.25500000000E-02 0. -1.
         -2    1    1    2  502    0  0.41740031147E+02 -0.27932064157E+02 -0.12160818817E+03  0.13157120447E+03  0.25500000000E-02 0. -1.
<mgrwt>
<rscale>  0 0.14763850E+03</rscale>
<asrwt>0</asrwt>
<pdfrwt beam="2">  1        1 0.22477469E-01 0.14763850E+03</pdfrwt>
<pdfrwt beam="1">  1       -1 0.57380610E-02 0.14763850E+03</pdfrwt>
<totfact> 0.29162676E+04</totfact>
</mgrwt>
</event>
<event>
 4    1  0.1893769E-002  0.1140826E+03  0.7818608E-02  0.1253191E+00
          1   -1    0    0    0  501  0.00000000000E+00  0.00000000000E+00  0.17794870853E+03  0.17794870860E+03  0.50400000000E-02 0. -1.
         -1   -1    0    0  501    0 -0.00000000000E+00 -0.00000000000E+00 -0.18284546353E+02  0.18284547048E+02  0.50400000000E-02 0. -1.
          2    1    1    2    0  502  0.90212239262E+00 -0.46063885454E+02  0.21984195586E+02  0.51048998325E+02  0.25500000000E-02 0. -1.
         -2    1    1    2  502    0 -0.90212239262E+00  0.46063885454E+02  0.13767996659E+03  0.14518425733E+03  0.25500000000E-02 0. -1.
<mgrwt>
<rscale>  0 0.11408263E+03</rscale>
<asrwt>0</asrwt>
<pdfrwt beam="1">  1        1 0.27376724E-01 0.11408263E+03</pdfrwt>
<pdfrwt beam="2">  1       -1 0.28130072E-02 0.11408263E+03</pdfrwt>
<totfact> 0.62870938E+04</totfact>
</mgrwt>
</event>
<event>
 4    1  0.1893769E-002  0.5184990E+02  0.7818608E-02  0.1435612E+00
         -1   -1    0    0  501    0 -0.00000000000E+00  0.00000000000E+00  0.83508029949E+00  0.83509550843E+00  0.50400000000E-02 0. -1.
          1   -1    0    0    0  501  0.00000000000E+00 -0.00000000000E+00 -0.80482914823E+03  0.80482914824E+03  0.50400000000E-02 0. -1.
          2    1    1    2    0  502 -0.11802139945E+02 -0.23081812972E+02 -0.39879388924E+03  0.39963561740E+03  0.25500000000E-02 0.  1.
         -2    1    1    2  502    0  0.11802139945E+02  0.23081812972E+02 -0.40520017869E+03  0.40602862635E+03  0.25500000000E-02 0.  1.
<mgrwt>
<rscale>  0 0.51849903E+02</rscale>
<asrwt>0</asrwt>
<pdfrwt beam="2">  1        1 0.12381925E+00 0.51849903E+02</pdfrwt>
<pdfrwt beam="1">  1       -1 0.12847571E-03 0.51849903E+02</pdfrwt>
<totfact> 0.60191487E+05</totfact>
</mgrwt>
</event>
<event>
 4    1  0.1893769E-002  0.4361869E+02  0.7818608E-02  0.1483154E+00
         -1   -1    0    0  501    0 -0.00000000000E+00  0.00000000000E+00  0.63254576102E+03  0.63254576104E+03  0.50400000000E-02 0. -1.
          1   -1    0    0    0  501  0.00000000000E+00 -0.00000000000E+00 -0.75194888164E+00  0.75196577197E+00  0.50400000000E-02 0. -1.
          2    1    1    2    0  502 -0.11740113504E+02 -0.17283510729E+02  0.22511288992E+03  0.22608043530E+03  0.25500000000E-02 0. -1.
         -2    1    1    2  502    0  0.11740113504E+02  0.17283510729E+02  0.40668092222E+03  0.40721729152E+03  0.25500000000E-02 0. -1.
<mgrwt>
<rscale>  0 0.43618686E+02</rscale>
<asrwt>0</asrwt>
<pdfrwt beam="2">  1        1 0.11568558E-03 0.43618686E+02</pdfrwt>
<pdfrwt beam="1">  1       -1 0.97314873E-01 0.43618686E+02</pdfrwt>
<totfact> 0.25952349E+05</totfact>
</mgrwt>
</event>
<event>
 4    1  0.1893769E-002  0.7683000E+02  0.7818608E-02  0.1338296E+00
          1   -1    0    0    0  501  0.00000000000E+00  0.00000000000E+00  0.35569292335E+02  0.35569292692E+02  0.50400000000E-02 0.  1.
         -1   -1    0    0  501    0 -0.00000000000E+00 -0.00000000000E+00 -0.41488371650E+02  0.41488371956E+02  0.50400000000E-02 0.  1.
          2    1    1    2    0  502 -0.28018142848E+02  0.22850073259E+02  0.10062379714E+02  0.37528571364E+02  0.25500000000E-02 0. -1.
         -2    1    1    2  502    0  0.28018142848E+02 -0.22850073259E+02 -0.15981459029E+02  0.39529093283E+02  0.25500000000E-02 0. -1.
<mgrwt>
<rscale>  0 0.76829995E+02</rscale>
<asrwt>0</asrwt>
<pdfrwt beam="1">  1        1 0.54721989E-02 0.76829995E+02</pdfrwt>
<pdfrwt beam="2">  1       -1 0.63828265E-02 0.76829995E+02</pdfrwt>
<totfact> 0.14379131E+05</totfact>
</mgrwt>
</event>
<event>
 4    1  0.1893769E-002  0.4274371E+02  0.7818608E-02  0.1488940E+00
         -1   -1    0    0  501    0 -0.00000000000E+00  0.00000000000E+00  0.74406999110E+00  0.74408706027E+00  0.50400000000E-02 0. -1.
          1   -1    0    0    0  501  0.00000000000E+00 -0.00000000000E+00 -0.61385472584E+03  0.61385472586E+03  0.50400000000E-02 0. -1.
          2    1    1    2    0  502 -0.20334928052E+02 -0.44543392557E+01 -0.23699201794E+03  0.23790453340E+03  0.25500000000E-02 0.  1.
         -2    1    1    2  502    0  0.20334928052E+02  0.44543392557E+01 -0.37611863791E+03  0.37669427952E+03  0.25500000000E-02 0.  1.
<mgrwt>
<rscale>  0 0.42743707E+02</rscale>
<asrwt>0</asrwt>
<pdfrwt beam="2">  1        1 0.94438785E-01 0.42743707E+02</pdfrwt>
<pdfrwt beam="1">  1       -1 0.11447411E-03 0.42743707E+02</pdfrwt>
<totfact> 0.97337150E+05</totfact>
</mgrwt>
</event>
<event>
 4    1  0.1893769E-002  0.7440777E+02  0.7818608E-02  0.1345715E+00
         -1   -1    0    0  501    0 -0.00000000000E+00  0.00000000000E+00  0.23457753009E+01  0.23457807152E+01  0.50400000000E-02 0. -1.
          1   -1    0    0    0  501  0.00000000000E+00 -0.00000000000E+00 -0.59005120294E+03  0.59005120296E+03  0.50400000000E-02 0. -1.
          2    1    1    2    0  502 -0.11134658468E+02  0.31371212347E+02 -0.16158751712E+03  0.16498078458E+03  0.25500000000E-02 0. -1.
         -2    1    1    2  502    0  0.11134658468E+02 -0.31371212347E+02 -0.42611791051E+03  0.42741619910E+03  0.25500000000E-02 0. -1.
<mgrwt>
<rscale>  0 0.74407772E+02</rscale>
<asrwt>0</asrwt>
<pdfrwt beam="2">  1        1 0.90776990E-01 0.74407772E+02</pdfrwt>
<pdfrwt beam="1">  1       -1 0.36088940E-03 0.74407772E+02</pdfrwt>
<totfact> 0.24090804E+05</totfact>
</mgrwt>
</event>
<event>
 4    1  0.1893769E-002  0.5400175E+02  0.7818608E-02  0.1424880E+00
          1   -1    0    0    0  501  0.00000000000E+00  0.00000000000E+00  0.11182822039E+03  0.11182822051E+03  0.50400000000E-02 0. -1.
         -1   -1    0    0  501    0 -0.00000000000E+00 -0.00000000000E+00 -0.65193483190E+01  0.65193502672E+01  0.50400000000E-02 0. -1.
          2    1    1    2    0  502  0.24501166049E+02 -0.11043107821E+02  0.46943830230E+02  0.54092333757E+02  0.25500000000E-02 0.  1.
         -2    1    1    2  502    0 -0.24501166049E+02  0.11043107821E+02  0.58365041846E+02  0.64255237018E+02  0.25500000000E-02 0.  1.
<mgrwt>
<rscale>  0 0.54001750E+02</rscale>
<asrwt>0</asrwt>
<pdfrwt beam="1">  1        1 0.17204340E-01 0.54001750E+02</pdfrwt>
<pdfrwt beam="2">  1       -1 0.10029769E-02 0.54001750E+02</pdfrwt>
<totfact> 0.42188292E+05</totfact>
</mgrwt>
</event>
<event>
 4    1  0.1893769E-002  0.4321023E+02  0.7818608E-02  0.1485834E+00
         -1   -1    0    0  501    0 -0.00000000000E+00  0.00000000000E+00  0.98297019783E+02  0.98297019912E+02  0.50400000000E-02 0. -1.
          1   -1    0    0    0  501  0.00000000000E+00 -0.00000000000E+00 -0.47486773330E+01  0.47486800076E+01  0.50400000000E-02 0. -1.
          2    1    1    2    0  502  0.20724001987E+02 -0.28386005536E+00  0.61322359949E+02  0.64730183617E+02  0.25500000000E-02 0. -1.
         -2    1    1    2  502    0 -0.20724001987E+02  0.28386005536E+00  0.32225982501E+02  0.38315516303E+02  0.25500000000E-02 0. -1.
<mgrwt>
<rscale>  0 0.43210229E+02</rscale>
<asrwt>0</asrwt>
<pdfrwt beam="2">  1        1 0.73056602E-03 0.43210229E+02</pdfrwt>
<pdfrwt beam="1">  1       -1 0.15122617E-01 0.43210229E+02</pdfrwt>
<totfact> 0.53415011E+05</totfact>
</mgrwt>
</event>
<event>
 4    1  0.1893769E-002  0.5169069E+02  0.7818608E-02  0.1436430E+00
         -1   -1    0    0  501    0 -0.00000000000E+00  0.00000000000E+00  0.23558182371E+01  0.23558236284E+01  0.50400000000E-02 0. -1.
          1   -1    0    0    0  501  0.00000000000E+00 -0.00000000000E+00 -0.28354520560E+03  0.28354520565E+03  0.50400000000E-02 0. -1.
          2    1    1    2    0  502  0.21216033109E+02  0.12631549366E+02 -0.98361035770E+02  0.10141286637E+03  0.25500000000E-02 0. -1.
         -2    1    1    2  502    0 -0.21216033109E+02 -0.12631549366E+02 -0.18282835159E+03  0.18448816291E+03  0.25500000000E-02 0. -1.
<mgrwt>
<rscale>  0 0.51690686E+02</rscale>
<asrwt>0</asrwt>
<pdfrwt beam="2">  1        1 0.43622313E-01 0.51690686E+02</pdfrwt>
<pdfrwt beam="1">  1       -1 0.36243422E-03 0.51690686E+02</pdfrwt>
<totfact> 0.54999439E+05</totfact>
</mgrwt>
</event>
<event>
 4    1  0.1893769E-002  0.4521651E+02  0.7818608E-02  0.1472995E+00
          1   -1    0    0    0  501  0.00000000000E+00  0.00000000000E+00  0.40828377378E+00  0.40831488037E+00  0.50400000000E-02 0.  1.
         -1   -1    0    0  501    0 -0.00000000000E+00 -0.00000000000E+00 -0.12518592316E+04  0.12518592316E+04  0.50400000000E-02 0.  1.
          2    1    1    2    0  502  0.12136444370E+02 -0.15971238071E+02 -0.91454979856E+03  0.91476975670E+03  0.25500000000E-02 0.  1.
         -2    1    1    2  502    0 -0.12136444370E+02  0.15971238071E+02 -0.33690114926E+03  0.33749778978E+03  0.25500000000E-02 0.  1.
<mgrwt>
<rscale>  0 0.45216514E+02</rscale>
<asrwt>0</asrwt>
<pdfrwt beam="1">  1        1 0.62816284E-04 0.45216514E+02</pdfrwt>
<pdfrwt beam="2">  1       -1 0.19259066E+00 0.45216514E+02</pdfrwt>
<totfact> 0.11255054E+05</totfact>
</mgrwt>
</event>
<event>
 4    1  0.1893769E-002  0.6202097E+02  0.7818608E-02  0.1389541E+00
         -1   -1    0    0  501    0 -0.00000000000E+00  0.00000000000E+00  0.54125898744E+02  0.54125898978E+02  0.50400000000E-02 0. -1.
          1   -1    0    0    0  501  0.00000000000E+00 -0.00000000000E+00 -0.17766915566E+02  0.17766916281E+02  0.50400000000E-02 0. -1.
          2    1    1    2    0  502  0.21570841021E+02 -0.20716842756E+02  0.27679133716E+02  0.40750744851E+02  0.25500000000E-02 0.  1.
         -2    1    1    2  502    0 -0.21570841021E+02  0.20716842756E+02  0.86798494616E+01  0.31142070408E+02  0.25500000000E-02 0.  1.
<mgrwt>
<rscale>  0 0.62020974E+02</rscale>
<asrwt>0</asrwt>
<pdfrwt beam="2">  1        1 0.27333717E-02 0.62020974E+02</pdfrwt>
<pdfrwt beam="1">  1       -1 0.83270615E-02 0.62020974E+02</pdfrwt>
<totfact> 0.23745720E+05</totfact>
</mgrwt>
</event>
<event>
 4    1  0.1893769E-002  0.5137799E+02  0.7818608E-02  0.1438048E+00
          1   -1    0    0    0  501  0.00000000000E+00  0.00000000000E+00  0.43528185688E+03  0.43528185691E+03  0.50400000000E-02 0. -1.
         -1   -1    0    0  501    0 -0.00000000000E+00 -0.00000000000E+00 -0.15160810368E+01  0.15160894141E+01  0.50400000000E-02 0. -1.
          2    1    1    2    0  502  0.99491219429E+01 -0.21484274543E+02  0.30162922018E+03  0.30255701207E+03  0.25500000000E-02 0. -1.
         -2    1    1    2  502    0 -0.99491219429E+01  0.21484274543E+02  0.13213655567E+03  0.13424093426E+03  0.25500000000E-02 0. -1.
<mgrwt>
<rscale>  0 0.51377988E+02</rscale>
<asrwt>0</asrwt>
<pdfrwt beam="1">  1        1 0.66966410E-01 0.51377988E+02</pdfrwt>
<pdfrwt beam="2">  1       -1 0.23324399E-03 0.51377988E+02</pdfrwt>
<totfact> 0.59864177E+05</totfact>
</mgrwt>
</event>
<event>
 4    1  0.1893769E-002  0.4184576E+02  0.7818608E-02  0.1495052E+00
          1   -1    0    0    0  501  0.00000000000E+00  0.00000000000E+00  0.19907415053E+04  0.19907415053E+04  0.50400000000E-02 0. -1.
         -1   -1    0    0  501    0 -0.00000000000E+00 -0.00000000000E+00 -0.21987249999E+00  0.21993025679E+00  0.50400000000E-02 0. -1.
          2    1    1    2    0  502  0.18168240750E+02 -0.97865235205E+01  0.11594296043E+04  0.11596132409E+04  0.25500000000E-02 0. -1.
         -2    1    1    2  502    0 -0.18168240750E+02  0.97865235205E+01  0.83109202841E+03  0.83134819463E+03  0.25500000000E-02 0. -1.
<mgrwt>
<rscale>  0 0.41845756E+02</rscale>
<asrwt>0</asrwt>
<pdfrwt beam="1">  1        1 0.30625416E+00 0.41845756E+02</pdfrwt>
<pdfrwt beam="2">  1       -1 0.33832503E-04 0.41845756E+02</pdfrwt>
<totfact> 0.59028132E+05</totfact>
</mgrwt>
</event>
<event>
 4    1  0.1893769E-002  0.5907688E+02  0.7818608E-02  0.1401747E+00
         -1   -1    0    0  501    0 -0.00000000000E+00  0.00000000000E+00  0.24316902193E+01  0.24316954423E+01  0.50400000000E-02 0. -1.
          1   -1    0    0    0  501  0.00000000000E+00 -0.00000000000E+00 -0.35881155064E+03  0.35881155068E+03  0.50400000000E-02 0. -1.
          2    1    1    2    0  502  0.18186434314E+02 -0.18930010286E+02 -0.95373834905E+02  0.98920473480E+02  0.25500000000E-02 0.  1.
         -2    1    1    2  502    0 -0.18186434314E+02  0.18930010286E+02 -0.26100602552E+03  0.26232277264E+03  0.25500000000E-02 0.  1.
<mgrwt>
<rscale>  0 0.59076882E+02</rscale>
<asrwt>0</asrwt>
<pdfrwt beam="2">  1        1 0.55201735E-01 0.59076882E+02</pdfrwt>
<pdfrwt beam="1">  1       -1 0.37410688E-03 0.59076882E+02</pdfrwt>
<totfact> 0.40898445E+05</totfact>
</mgrwt>
</event>
<event>
 4    1  0.1893769E-002  0.4985334E+02  0.7818608E-02  0.1446134E+00
         -1   -1    0    0  501    0 -0.00000000000E+00  0.00000000000E+00  0.11340559942E+01  0.11340671936E+01  0.50400000000E-02 0.  1.
          1   -1    0    0    0  501  0.00000000000E+00 -0.00000000000E+00 -0.54788808840E+03  0.54788808843E+03  0.50400000000E-02 0.  1.
          2    1    1    2    0  502  0.21156351733E+02  0.11275293560E+02 -0.19818698912E+03  0.19963167616E+03  0.25500000000E-02 0. -1.
         -2    1    1    2  502    0 -0.21156351733E+02 -0.11275293560E+02 -0.34856704329E+03  0.34939047946E+03  0.25500000000E-02 0. -1.
<mgrwt>
<rscale>  0 0.49853339E+02</rscale>
<asrwt>0</asrwt>
<pdfrwt beam="2">  1        1 0.84290265E-01 0.49853339E+02</pdfrwt>
<pdfrwt beam="1">  1       -1 0.17447145E-03 0.49853339E+02</pdfrwt>
<totfact> 0.66213889E+05</totfact>
</mgrwt>
</event>
<event>
 4    1  0.1893769E-002  0.4271187E+02  0.7818608E-02  0.1489153E+00
         -1   -1    0    0  501    0 -0.00000000000E+00  0.00000000000E+00  0.21301870146E+03  0.21301870152E+03  0.50400000000E-02 0. -1.
          1   -1    0    0    0  501  0.00000000000E+00 -0.00000000000E+00 -0.21410108182E+01  0.21410167504E+01  0.50400000000E-02 0. -1.
          2    1    1    2    0  502  0.11231559820E+02 -0.18112302178E+02  0.11233218696E+03  0.11433601209E+03  0.25500000000E-02 0. -1.
         -2    1    1    2  502    0 -0.11231559820E+02  0.18112302178E+02  0.98545503684E+02  0.10082370619E+03  0.25500000000E-02 0. -1.
<mgrwt>
<rscale>  0 0.42711871E+02</rscale>
<asrwt>0</asrwt>
<pdfrwt beam="2">  1        1 0.32938670E-03 0.42711871E+02</pdfrwt>
<pdfrwt beam="1">  1       -1 0.32772112E-01 0.42711871E+02</pdfrwt>
<totfact> 0.46373440E+05</totfact>
</mgrwt>
</event>
<event>
 4    1  0.1893769E-002  0.6021117E+02  0.7818608E-02  0.1396948E+00
         -1   -1    0    0  501    0 -0.00000000000E+00  0.00000000000E+00  0.13819569312E+01  0.13819661216E+01  0.50400000000E-02 0. -1.
          1   -1    0    0    0  501  0.00000000000E+00 -0.00000000000E+00 -0.65584042296E+03  0.65584042298E+03  0.50400000000E-02 0. -1.
          2    1    1    2    0  502  0.27806247096E+02 -0.53818922683E+01 -0.43864761320E+03  0.43956100909E+03  0.25500000000E-02 0.  1.
         -2    1    1    2  502    0 -0.27806247096E+02  0.53818922683E+01 -0.21581085283E+03  0.21766138001E+03  0.25500000000E-02 0.  1.
<mgrwt>
<rscale>  0 0.60211170E+02</rscale>
<asrwt>0</asrwt>
<pdfrwt beam="2">  1        1 0.10089828E+00 0.60211170E+02</pdfrwt>
<pdfrwt beam="1">  1       -1 0.21260999E-03 0.60211170E+02</pdfrwt>
<totfact> 0.41637052E+05</totfact>
</mgrwt>
</event>
<event>
 4    1  0.1893769E-002  0.4689942E+02  0.7818608E-02  0.1462821E+00
          1   -1    0    0    0  501  0.00000000000E+00  0.00000000000E+00  0.55087681050E+02  0.55087681281E+02  0.50400000000E-02 0.  1.
         -1   -1    0    0  501    0 -0.00000000000E+00 -0.00000000000E+00 -0.99820636632E+01  0.99820649356E+01  0.50400000000E-02 0.  1.
          2    1    1    2    0  502  0.78664704240E+01 -0.22049883270E+02  0.20686172525E+02  0.31240941877E+02  0.25500000000E-02 0. -1.
         -2    1    1    2  502    0 -0.78664704240E+01  0.22049883270E+02  0.24419444862E+02  0.33828804339E+02  0.25500000000E-02 0. -1.
<mgrwt>
<rscale>  0 0.46899415E+02</rscale>
<asrwt>0</asrwt>
<pdfrwt beam="1">  1        1 0.84750280E-02 0.46899415E+02</pdfrwt>
<pdfrwt beam="2">  1       -1 0.15357022E-02 0.46899415E+02</pdfrwt>
<totfact> 0.55386553E+05</totfact>
</mgrwt>
</event>
<event>
 4    1  0.1893769E-002  0.4199639E+02  0.7818608E-02  0.1494014E+00
         -1   -1    0    0  501    0 -0.00000000000E+00  0.00000000000E+00  0.18916399188E+02  0.18916399859E+02  0.50400000000E-02 0.  1.
          1   -1    0    0    0  501  0.00000000000E+00 -0.00000000000E+00 -0.23309094316E+02  0.23309094861E+02  0.50400000000E-02 0.  1.
          2    1    1    2    0  502 -0.14309537655E+02  0.14621378348E+02  0.25598474341E+01  0.20617962995E+02  0.25500000000E-02 0. -1.
         -2    1    1    2  502    0  0.14309537655E+02 -0.14621378348E+02 -0.69525425629E+01  0.21607531725E+02  0.25500000000E-02 0. -1.
<mgrwt>
<rscale>  0 0.41996388E+02</rscale>
<asrwt>0</asrwt>
<pdfrwt beam="2">  1        1 0.35860146E-02 0.41996388E+02</pdfrwt>
<pdfrwt beam="1">  1       -1 0.29102153E-02 0.41996388E+02</pdfrwt>
<totfact> 0.68057748E+05</totfact>
</mgrwt>
</event>
<event>
 4    1  0.1893769E-002  0.9468113E+02  0.7818608E-02  0.1291896E+00
         -1   -1    0    0  501    0 -0.00000000000E+00  0.00000000000E+00  0.41489075561E+02  0.41489075867E+02  0.50400000000E-02 0.  1.
          1   -1    0    0    0  501  0.00000000000E+00 -0.00000000000E+00 -0.54017325045E+02  0.54017325280E+02  0.50400000000E-02 0.  1.
          2    1    1    2    0  502 -0.77710113712E+01 -0.27847906431E+02 -0.44077326404E+02  0.52713425423E+02  0.25500000000E-02 0.  1.
         -2    1    1    2  502    0  0.77710113712E+01  0.27847906431E+02  0.31549076920E+02  0.42792975724E+02  0.25500000000E-02 0.  1.
<mgrwt>
<rscale>  0 0.94681126E+02</rscale>
<asrwt>0</asrwt>
<pdfrwt beam="2">  1        1 0.83103578E-02 0.94681126E+02</pdfrwt>
<pdfrwt beam="1">  1       -1 0.63829347E-02 0.94681126E+02</pdfrwt>
<totfact> 0.85363132E+04</totfact>
</mgrwt>
</event>
<event>
 4    1  0.1893769E-002  0.4237929E+02  0.7818608E-02  0.1491398E+00
         -1   -1    0    0  501    0 -0.00000000000E+00  0.00000000000E+00  0.32770384423E+02  0.32770384810E+02  0.50400000000E-02 0.  1.
          1   -1    0    0    0  501  0.00000000000E+00 -0.00000000000E+00 -0.13701424240E+02  0.13701425167E+02  0.50400000000E-02 0.  1.
          2    1    1    2    0  502 -0.14147621001E+02 -0.15513572573E+02  0.12669756513E+02  0.24522415268E+02  0.25500000000E-02 0. -1.
         -2    1    1    2  502    0  0.14147621001E+02  0.15513572573E+02  0.63992036699E+01  0.21949394709E+02  0.25500000000E-02 0. -1.
<mgrwt>
<rscale>  0 0.42379286E+02</rscale>
<asrwt>0</asrwt>
<pdfrwt beam="2">  1        1 0.21079116E-02 0.42379286E+02</pdfrwt>
<pdfrwt beam="1">  1       -1 0.50415976E-02 0.42379286E+02</pdfrwt>
<totfact> 0.63714603E+05</totfact>
</mgrwt>
</event>
<event>
 4    1  0.1893769E-002  0.4862574E+02  0.7818608E-02  0.1452898E+00
         -1   -1    0    0  501    0 -0.00000000000E+00  0.00000000000E+00  0.70255191209E+02  0.70255191389E+02  0.50400000000E-02 0. -1.
          1   -1    0    0    0  501  0.00000000000E+00 -0.00000000000E+00 -0.84138365020E+01  0.84138380116E+01  0.50400000000E-02 0. -1.
          2    1    1    2    0  502  0.22240572427E+02  0.94990985215E+01  0.34961999551E+02  0.42511379108E+02  0.25500000000E-02 0.  1.
         -2    1    1    2  502    0 -0.22240572427E+02 -0.94990985215E+01  0.26879355156E+02  0.36157650293E+02  0.25500000000E-02 0.  1.
<mgrwt>
<rscale>  0 0.48625745E+02</rscale>
<asrwt>0</asrwt>
<pdfrwt beam="2">  1        1 0.12944366E-02 0.48625745E+02</pdfrwt>
<pdfrwt beam="1">  1       -1 0.10808491E-01 0.48625745E+02</pdfrwt>
<totfact> 0.42008033E+05</totfact>
</mgrwt>
</event>
<event>
 4    1  0.1893769E-002  0.7884127E+02  0.7818608E-02  0.1332372E+00
         -1   -1    0    0  501    0 -0.00000000000E+00  0.00000000000E+00  0.13816256397E+02  0.13816257316E+02  0.50400000000E-02 0.  1.
          1   -1    0    0    0  501  0.00000000000E+00 -0.00000000000E+00 -0.11247520164E+03  0.11247520175E+03  0.50400000000E-02 0.  1.
          2    1    1    2    0  502 -0.93042351790E+00  0.37971564807E+02 -0.66227290783E+02  0.76346312765E+02  0.25500000000E-02 0. -1.
         -2    1    1    2  502    0  0.93042351790E+00 -0.37971564807E+02 -0.32431654463E+02  0.49945146306E+02  0.25500000000E-02 0. -1.
<mgrwt>
<rscale>  0 0.78841266E+02</rscale>
<asrwt>0</asrwt>
<pdfrwt beam="2">  1        1 0.17303877E-01 0.78841266E+02</pdfrwt>
<pdfrwt beam="1">  1       -1 0.21255781E-02 0.78841266E+02</pdfrwt>
<totfact> 0.15754844E+05</totfact>
</mgrwt>
</event>
<event>
 4    1  0.1893769E-002  0.5958518E+02  0.7818608E-02  0.1399581E+00
          1   -1    0    0    0  501  0.00000000000E+00  0.00000000000E+00  0.70163963058E+02  0.70163963239E+02  0.50400000000E-02 0.  1.
         -1   -1    0    0  501    0 -0.00000000000E+00 -0.00000000000E+00 -0.12650347107E+02  0.12650348111E+02  0.50400000000E-02 0.  1.
          2    1    1    2    0  502  0.21687968681E+02 -0.98790456050E+01  0.39086456163E+01  0.24150383944E+02  0.25500000000E-02 0.  1.
         -2    1    1    2  502    0 -0.21687968681E+02  0.98790456050E+01  0.53604970334E+02  0.58663927406E+02  0.25500000000E-02 0.  1.
<mgrwt>
<rscale>  0 0.59585184E+02</rscale>
<asrwt>0</asrwt>
<pdfrwt beam="1">  1        1 0.10794456E-01 0.59585184E+02</pdfrwt>
<pdfrwt beam="2">  1       -1 0.19462074E-02 0.59585184E+02</pdfrwt>
<totfact> 0.30804529E+05</totfact>
</mgrwt>
</event>
<event>
 4    1  0.1893769E-002  0.5776543E+02  0.7818608E-02  0.1407456E+00
         -1   -1    0    0  501    0 -0.00000000000E+00  0.00000000000E+00  0.50399660916E+01  0.50399686117E+01  0.50400000000E-02 0. -1.
          1   -1    0    0    0  501  0.00000000000E+00 -0.00000000000E+00 -0.16551915423E+03  0.16551915431E+03  0.50400000000E-02 0. -1.
          2    1    1    2    0  502  0.13351955655E+02 -0.21917210395E+02 -0.41116339649E+02  0.48468466285E+02  0.25500000000E-02 0.  1.
         -2    1    1    2  502    0 -0.13351955655E+02  0.21917210395E+02 -0.11936284849E+03  0.12209065663E+03  0.25500000000E-02 0.  1.
<mgrwt>
<rscale>  0 0.57765427E+02</rscale>
<asrwt>0</asrwt>
<pdfrwt beam="2">  1        1 0.25464481E-01 0.57765427E+02</pdfrwt>
<pdfrwt beam="1">  1       -1 0.77537973E-03 0.57765427E+02</pdfrwt>
<totfact> 0.37777192E+05</totfact>
</mgrwt>
</event>
<event>
 4    1  0.1893769E-002  0.8829747E+02  0.7818608E-02  0.1307028E+00
          1   -1    0    0    0  501  0.00000000000E+00  0.00000000000E+00  0.22997958555E+03  0.22997958561E+03  0.50400000000E-02 0.  1.
         -1   -1    0    0  501    0 -0.00000000000E+00 -0.00000000000E+00 -0.84751471283E+01  0.84751486269E+01  0.50400000000E-02 0.  1.
          2    1    1    2    0  502 -0.57433883906E+01 -0.40787786526E+02  0.15366355019E+03  0.15908839274E+03  0.25500000000E-02 0.  1.
         -2    1    1    2  502    0  0.57433883906E+01  0.40787786526E+02  0.67840888231E+02  0.79366341496E+02  0.25500000000E-02 0.  1.
<mgrwt>
<rscale>  0 0.88297475E+02</rscale>
<asrwt>0</asrwt>
<pdfrwt beam="1">  1        1 0.35381474E-01 0.88297475E+02</pdfrwt>
<pdfrwt beam="2">  1       -1 0.13038690E-02 0.88297475E+02</pdfrwt>
<totfact> 0.13255222E+05</totfact>
</mgrwt>
</event>
<event>
 4    1  0.1893769E-002  0.4479444E+02  0.7818608E-02  0.1475629E+00
          1   -1    0    0    0  501  0.00000000000E+00  0.00000000000E+00  0.92239303913E+00  0.92240680843E+00  0.50400000000E-02 0.  1.
         -1   -1    0    0  501    0 -0.00000000000E+00 -0.00000000000E+00 -0.54383725430E+03  0.54383725432E+03  0.50400000000E-02 0.  1.
          2    1    1    2    0  502  0.18721404696E+02 -0.86050196415E+01 -0.16467430063E+03  0.16595831601E+03  0.25500000000E-02 0.  1.
         -2    1    1    2  502    0 -0.18721404696E+02  0.86050196415E+01 -0.37824056063E+03  0.37880134512E+03  0.25500000000E-02 0.  1.
<mgrwt>
<rscale>  0 0.44794440E+02</rscale>
<asrwt>0</asrwt>
<pdfrwt beam="1">  1        1 0.14190812E-03 0.44794440E+02</pdfrwt>
<pdfrwt beam="2">  1       -1 0.83667015E-01 0.44794440E+02</pdfrwt>
<totfact> 0.27096735E+05</totfact>
</mgrwt>
</event>
<event>
 4    1  0.1893769E-002  0.5925263E+02  0.7818608E-02  0.1400995E+00
          1   -1    0    0    0  501  0.00000000000E+00  0.00000000000E+00  0.33415749171E+02  0.33415749551E+02  0.50400000000E-02 0.  1.
         -1   -1    0    0  501    0 -0.00000000000E+00 -0.00000000000E+00 -0.26266610280E+02  0.26266610763E+02  0.50400000000E-02 0.  1.
          2    1    1    2    0  502  0.26978694886E+02 -0.25314817283E+01 -0.84897808905E+01  0.28396034293E+02  0.25500000000E-02 0.  1.
         -2    1    1    2  502    0 -0.26978694886E+02  0.25314817283E+01  0.15638919782E+02  0.31286326022E+02  0.25500000000E-02 0.  1.
<mgrwt>
<rscale>  0 0.59252628E+02</rscale>
<asrwt>0</asrwt>
<pdfrwt beam="1">  1        1 0.51408846E-02 0.59252628E+02</pdfrwt>
<pdfrwt beam="2">  1       -1 0.40410170E-02 0.59252628E+02</pdfrwt>
<totfact> 0.28802315E+05</totfact>
</mgrwt>
</event>
<event>
 4    1  0.1893769E-002  0.5510259E+02  0.7818608E-02  0.1419614E+00
          1   -1    0    0    0  501  0.00000000000E+00  0.00000000000E+00  0.46351635918E+01  0.46351663319E+01  0.50400000000E-02 0. -1.
         -1   -1    0    0  501    0 -0.00000000000E+00 -0.00000000000E+00 -0.16376415776E+03  0.16376415783E+03  0.50400000000E-02 0. -1.
          2    1    1    2    0  502 -0.78129365748E+01  0.26348648717E+02 -0.73622257774E+02  0.78584541186E+02  0.25500000000E-02 0.  1.
         -2    1    1    2  502    0  0.78129365748E+01 -0.26348648717E+02 -0.85506736390E+02  0.89814782980E+02  0.25500000000E-02 0.  1.
<mgrwt>
<rscale>  0 0.55102592E+02</rscale>
<asrwt>0</asrwt>
<pdfrwt beam="1">  1        1 0.71310243E-03 0.55102592E+02</pdfrwt>
<pdfrwt beam="2">  1       -1 0.25194482E-01 0.55102592E+02</pdfrwt>
<totfact> 0.26493418E+05</totfact>
</mgrwt>
</event>
<event>
 4    1  0.1893769E-002  0.4681934E+02  0.7818608E-02  0.1463293E+00
         -1   -1    0    0  501    0 -0.00000000000E+00  0.00000000000E+00  0.17018374441E+02  0.17018375187E+02  0.50400000000E-02 0. -1.
          1   -1    0    0    0  501  0.00000000000E+00 -0.00000000000E+00 -0.32201237863E+02  0.32201238257E+02  0.50400000000E-02 0. -1.
          2    1    1    2    0  502  0.46042786541E+01  0.21521007329E+02 -0.15979169515E+02  0.27197187414E+02  0.25500000000E-02 0. -1.
         -2    1    1    2  502    0 -0.46042786541E+01 -0.21521007329E+02  0.79630609264E+00  0.22022426030E+02  0.25500000000E-02 0. -1.
<mgrwt>
<rscale>  0 0.46819344E+02</rscale>
<asrwt>0</asrwt>
<pdfrwt beam="2">  1        1 0.49540367E-02 0.46819344E+02</pdfrwt>
<pdfrwt beam="1">  1       -1 0.26182115E-02 0.46819344E+02</pdfrwt>
<totfact> 0.52968146E+05</totfact>
</mgrwt>
</event>
<event>
 4    1  0.1893769E-002  0.4877936E+02  0.7818608E-02  0.1452039E+00
          1   -1    0    0    0  501  0.00000000000E+00  0.00000000000E+00  0.95595451142E+02  0.95595451275E+02  0.50400000000E-02 0. -1.
         -1   -1    0    0  501    0 -0.00000000000E+00 -0.00000000000E+00 -0.62226429250E+01  0.62226449661E+01  0.50400000000E-02 0. -1.
          2    1    1    2    0  502  0.18856664677E+02  0.67567430546E+01  0.15641217147E+02  0.25414072082E+02  0.25500000000E-02 0. -1.
         -2    1    1    2  502    0 -0.18856664677E+02 -0.67567430546E+01  0.73731591070E+02  0.76404024158E+02  0.25500000000E-02 0. -1.
<mgrwt>
<rscale>  0 0.48779359E+02</rscale>
<asrwt>0</asrwt>
<pdfrwt beam="1">  1        1 0.14706993E-01 0.48779359E+02</pdfrwt>
<pdfrwt beam="2">  1       -1 0.95732984E-03 0.48779359E+02</pdfrwt>
<totfact> 0.53417922E+05</totfact>
</mgrwt>
</event>
<event>
 4    1  0.1893769E-002  0.7030288E+02  0.7818608E-02  0.1359066E+00
          1   -1    0    0    0  501  0.00000000000E+00  0.00000000000E+00  0.54801557957E+01  0.54801581133E+01  0.50400000000E-02 0.  1.
         -1   -1    0    0  501    0 -0.00000000000E+00 -0.00000000000E+00 -0.22547229751E+03  0.22547229756E+03  0.50400000000E-02 0.  1.
          2    1    1    2    0  502  0.30641329339E+02 -0.11568451567E+02 -0.68067058354E+02  0.75537041078E+02  0.25500000000E-02 0.  1.
         -2    1    1    2  502    0 -0.30641329339E+02  0.11568451567E+02 -0.15192508336E+03  0.15541541460E+03  0.25500000000E-02 0.  1.
<mgrwt>
<rscale>  0 0.70302876E+02</rscale>
<asrwt>0</asrwt>
<pdfrwt beam="1">  1        1 0.84310125E-03 0.70302876E+02</pdfrwt>
<pdfrwt beam="2">  1       -1 0.34688039E-01 0.70302876E+02</pdfrwt>
<totfact> 0.13114703E+05</totfact>
</mgrwt>
</event>
<event>
 4    1  0.1893769E-002  0.9261182E+02  0.7818608E-02  0.1296647E+00
          1   -1    0    0    0  501  0.00000000000E+00  0.00000000000E+00  0.65375359584E+03  0.65375359586E+03  0.50400000000E-02 0. -1.
         -1   -1    0    0  501    0 -0.00000000000E+00 -0.00000000000E+00 -0.32798839313E+01  0.32798878036E+01  0.50400000000E-02 0. -1.
          2    1    1    2    0  502  0.15355938285E+02 -0.26562980184E+02  0.57128783816E+03  0.57211116996E+03  0.25500000000E-02 0.  1.
         -2    1    1    2  502    0 -0.15355938285E+02  0.26562980184E+02  0.79185873753E+02  0.84922313708E+02  0.25500000000E-02 0.  1.
<mgrwt>
<rscale>  0 0.92611818E+02</rscale>
<asrwt>0</asrwt>
<pdfrwt beam="1">  1        1 0.10057734E+00 0.92611818E+02</pdfrwt>
<pdfrwt beam="2">  1       -1 0.50459852E-03 0.92611818E+02</pdfrwt>
<totfact> 0.13634590E+05</totfact>
</mgrwt>
</event>
<event>
 4    1  0.1893769E-002  0.4199531E+02  0.7818608E-02  0.1494021E+00
          1   -1    0    0    0  501  0.00000000000E+00  0.00000000000E+00  0.79052005124E+02  0.79052005285E+02  0.50400000000E-02 0. -1.
         -1   -1    0    0  501    0 -0.00000000000E+00 -0.00000000000E+00 -0.55773587265E+01  0.55773610037E+01  0.50400000000E-02 0. -1.
          2    1    1    2    0  502  0.63097346325E+01 -0.19424807998E+02  0.46561460629E+02  0.50843933161E+02  0.25500000000E-02 0.  1.
         -2    1    1    2  502    0 -0.63097346325E+01  0.19424807998E+02  0.26913185769E+02  0.33785433128E+02  0.25500000000E-02 0.  1.
<mgrwt>
<rscale>  0 0.41995309E+02</rscale>
<asrwt>0</asrwt>
<pdfrwt beam="1">  1        1 0.12161846E-01 0.41995309E+02</pdfrwt>
<pdfrwt beam="2">  1       -1 0.85805542E-03 0.41995309E+02</pdfrwt>
<totfact> 0.75863742E+05</totfact>
</mgrwt>
</event>
<event>
 4    1  0.1893769E-002  0.7095687E+02  0.7818608E-02  0.1356869E+00
         -1   -1    0    0  501    0 -0.00000000000E+00  0.00000000000E+00  0.43368256963E+01  0.43368286249E+01  0.50400000000E-02 0.  1.
          1   -1    0    0    0  501  0.00000000000E+00 -0.00000000000E+00 -0.29023970053E+03  0.29023970057E+03  0.50400000000E-02 0.  1.
          2    1    1    2    0  502  0.29906788672E+02  0.13642177312E+02 -0.19836942077E+03  0.20107449394E+03  0.25500000000E-02 0. -1.
         -2    1    1    2  502    0 -0.29906788672E+02 -0.13642177312E+02 -0.87533454061E+02  0.93502035254E+02  0.25500000000E-02 0. -1.
<mgrwt>
<rscale>  0 0.70956872E+02</rscale>
<asrwt>0</asrwt>
<pdfrwt beam="2">  1        1 0.44652246E-01 0.70956872E+02</pdfrwt>
<pdfrwt beam="1">  1       -1 0.66720441E-03 0.70956872E+02</pdfrwt>
<totfact> 0.24618816E+05</totfact>
</mgrwt>
</event>
<event>
 4    1  0.1893769E-002  0.5966173E+02  0.7818608E-02  0.1399257E+00
          1   -1    0    0    0  501  0.00000000000E+00  0.00000000000E+00  0.64557899639E+01  0.64557919313E+01  0.50400000000E-02 0. -1.
         -1   -1    0    0  501    0 -0.00000000000E+00 -0.00000000000E+00 -0.13784221540E+03  0.13784221549E+03  0.50400000000E-02 0. -1.
          2    1    1    2    0  502  0.93982987477E+01 -0.17856639485E+02 -0.12555854766E+02  0.23766301531E+02  0.25500000000E-02 0.  1.
         -2    1    1    2  502    0 -0.93982987477E+01  0.17856639485E+02 -0.11883057067E+03  0.12053170589E+03  0.25500000000E-02 0.  1.
<mgrwt>
<rscale>  0 0.59661731E+02</rscale>
<asrwt>0</asrwt>
<pdfrwt beam="1">  1        1 0.99319872E-03 0.59661731E+02</pdfrwt>
<pdfrwt beam="2">  1       -1 0.21206493E-01 0.59661731E+02</pdfrwt>
<totfact> 0.22555087E+05</totfact>
</mgrwt>
</event>
<event>
 4    1  0.1893769E-002  0.4522315E+02  0.7818608E-02  0.1472953E+00
         -1   -1    0    0  501    0 -0.00000000000E+00  0.00000000000E+00  0.39565449527E+01  0.39565481628E+01  0.50400000000E-02 0.  1.
          1   -1    0    0    0  501  0.00000000000E+00 -0.00000000000E+00 -0.12922462956E+03  0.12922462966E+03  0.50400000000E-02 0.  1.
          2    1    1    2    0  502  0.20448282278E+02  0.48200990643E+01 -0.38009082808E+02  0.43428746073E+02  0.25500000000E-02 0. -1.
         -2    1    1    2  502    0 -0.20448282278E+02 -0.48200990643E+01 -0.87259001799E+02  0.89752431747E+02  0.25500000000E-02 0. -1.
<mgrwt>
<rscale>  0 0.45223148E+02</rscale>
<asrwt>0</asrwt>
<pdfrwt beam="2">  1        1 0.19880709E-01 0.45223148E+02</pdfrwt>
<pdfrwt beam="1">  1       -1 0.60869958E-03 0.45223148E+02</pdfrwt>
<totfact> 0.67306088E+05</totfact>
</mgrwt>
</event>
<event>
 4    1  0.1893769E-002  0.4328322E+02  0.7818608E-02  0.1485353E+00
          1   -1    0    0    0  501  0.00000000000E+00  0.00000000000E+00  0.50457654211E+03  0.50457654213E+03  0.50400000000E-02 0. -1.
         -1   -1    0    0  501    0 -0.00000000000E+00 -0.00000000000E+00 -0.92821572414E+00  0.92822940707E+00  0.50400000000E-02 0. -1.
          2    1    1    2    0  502  0.20746141091E+02 -0.54701189268E+01  0.21871925988E+03  0.21976905883E+03  0.25500000000E-02 0. -1.
         -2    1    1    2  502    0 -0.20746141091E+02  0.54701189268E+01  0.28492906650E+03  0.28573571270E+03  0.25500000000E-02 0. -1.
<mgrwt>
<rscale>  0 0.43283223E+02</rscale>
<asrwt>0</asrwt>
<pdfrwt beam="1">  1        1 0.77627035E-01 0.43283223E+02</pdfrwt>
<pdfrwt beam="2">  1       -1 0.14280371E-03 0.43283223E+02</pdfrwt>
<totfact> 0.93028108E+05</totfact>
</mgrwt>
</event>
<event>
 4    1  0.1893769E-002  0.4838459E+02  0.7818608E-02  0.1454255E+00
          1   -1    0    0    0  501  0.00000000000E+00  0.00000000000E+00  0.13205584093E+02  0.13205585055E+02  0.50400000000E-02 0.  1.
         -1   -1    0    0  501    0 -0.00000000000E+00 -0.00000000000E+00 -0.44319668964E+02  0.44319669251E+02  0.50400000000E-02 0.  1.
          2    1    1    2    0  502  0.71443950909E+01  0.21159472301E+02 -0.26614703782E+02  0.34743461445E+02  0.25500000000E-02 0. -1.
         -2    1    1    2  502    0 -0.71443950909E+01 -0.21159472301E+02 -0.44993810895E+01  0.22781792861E+02  0.25500000000E-02 0. -1.
<mgrwt>
<rscale>  0 0.48384591E+02</rscale>
<asrwt>0</asrwt>
<pdfrwt beam="1">  1        1 0.20316284E-02 0.48384591E+02</pdfrwt>
<pdfrwt beam="2">  1       -1 0.68184106E-02 0.48384591E+02</pdfrwt>
<totfact> 0.44870314E+05</totfact>
</mgrwt>
</event>
<event>
 4    1  0.1893769E-002  0.4931456E+02  0.7818608E-02  0.1449074E+00
          1   -1    0    0    0  501  0.00000000000E+00  0.00000000000E+00  0.91881987796E+01  0.91882001619E+01  0.50400000000E-02 0. -1.
         -1   -1    0    0  501    0 -0.00000000000E+00 -0.00000000000E+00 -0.66169808506E+02  0.66169808698E+02  0.50400000000E-02 0. -1.
          2    1    1    2    0  502 -0.10591387299E+02  0.19873471346E+02 -0.43836628105E+02  0.49282677671E+02  0.25500000000E-02 0. -1.
         -2    1    1    2  502    0  0.10591387299E+02 -0.19873471346E+02 -0.13144981621E+02  0.26075331189E+02  0.25500000000E-02 0. -1.
<mgrwt>
<rscale>  0 0.49314558E+02</rscale>
<asrwt>0</asrwt>
<pdfrwt beam="1">  1        1 0.14135692E-02 0.49314558E+02</pdfrwt>
<pdfrwt beam="2">  1       -1 0.10179970E-01 0.49314558E+02</pdfrwt>
<totfact> 0.40896323E+05</totfact>
</mgrwt>
</event>
<event>
 4    1  0.1893769E-002  0.4804100E+02  0.7818608E-02  0.1456204E+00
         -1   -1    0    0  501    0 -0.00000000000E+00  0.00000000000E+00  0.39608341751E+00  0.39611548218E+00  0.50400000000E-02 0. -1.
          1   -1    0    0    0  501  0.00000000000E+00 -0.00000000000E+00 -0.14566652183E+04  0.14566652183E+04  0.50400000000E-02 0. -1.
          2    1    1    2    0  502  0.18022976850E+02  0.14421862177E+02 -0.92969825899E+03  0.92998476901E+03  0.25500000000E-02 0.  1.
         -2    1    1    2  502    0 -0.18022976850E+02 -0.14421862177E+02 -0.52657087584E+03  0.52707656474E+03  0.25500000000E-02 0.  1.
<mgrwt>
<rscale>  0 0.48040995E+02</rscale>
<asrwt>0</asrwt>
<pdfrwt beam="2">  1        1 0.22409805E+00 0.48040995E+02</pdfrwt>
<pdfrwt beam="1">  1       -1 0.60939544E-04 0.48040995E+02</pdfrwt>
<totfact> 0.58515105E+05</totfact>
</mgrwt>
</event>
<event>
 4    1  0.1893769E-002  0.8325354E+02  0.7818608E-02  0.1320064E+00
          1   -1    0    0    0  501  0.00000000000E+00  0.00000000000E+00  0.66665079120E+02  0.66665079310E+02  0.50400000000E-02 0. -1.
         -1   -1    0    0  501    0 -0.00000000000E+00 -0.00000000000E+00 -0.25992438722E+02  0.25992439211E+02  0.50400000000E-02 0. -1.
          2    1    1    2    0  502  0.38219272360E+02 -0.16059207292E+02  0.16145765582E+02  0.44489287152E+02  0.25500000000E-02 0. -1.
         -2    1    1    2  502    0 -0.38219272360E+02  0.16059207292E+02  0.24526874815E+02  0.48168231369E+02  0.25500000000E-02 0. -1.
<mgrwt>
<rscale>  0 0.83253541E+02</rscale>
<asrwt>0</asrwt>
<pdfrwt beam="1">  1        1 0.10256166E-01 0.83253541E+02</pdfrwt>
<pdfrwt beam="2">  1       -1 0.39988367E-02 0.83253541E+02</pdfrwt>
<totfact> 0.12566016E+05</totfact>
</mgrwt>
</event>
<event>
 4    1  0.1893769E-002  0.6550138E+02  0.7818608E-02  0.1376095E+00
         -1   -1    0    0  501    0 -0.00000000000E+00  0.00000000000E+00  0.96433376651E+00  0.96434693696E+00  0.50400000000E-02 0. -1.
          1   -1    0    0    0  501  0.00000000000E+00 -0.00000000000E+00 -0.11122707820E+04  0.11122707820E+04  0.50400000000E-02 0. -1.
          2    1    1    2    0  502  0.71070827207E+01  0.31810151938E+02 -0.50134380950E+03  0.50240224096E+03  0.25500000000E-02 0. -1.
         -2    1    1    2  502    0 -0.71070827207E+01 -0.31810151938E+02 -0.60996263874E+03  0.61083288799E+03  0.25500000000E-02 0. -1.
<mgrwt>
<rscale>  0 0.65501377E+02</rscale>
<asrwt>0</asrwt>
<pdfrwt beam="2">  1        1 0.17111756E+00 0.65501377E+02</pdfrwt>
<pdfrwt beam="1">  1       -1 0.14836094E-03 0.65501377E+02</pdfrwt>
<totfact> 0.31074743E+05</totfact>
</mgrwt>
</event>
<event>
 4    1  0.1893769E-002  0.5169243E+02  0.7818608E-02  0.1436421E+00
         -1   -1    0    0  501    0 -0.00000000000E+00  0.00000000000E+00  0.33557242884E+01  0.33557280732E+01  0.50400000000E-02 0.  1.
          1   -1    0    0    0  501  0.00000000000E+00 -0.00000000000E+00 -0.19907070579E+03  0.19907070585E+03  0.50400000000E-02 0.  1.
          2    1    1    2    0  502  0.70241690206E+01 -0.23905419147E+02 -0.70948486602E+02  0.75196381380E+02  0.25500000000E-02 0.  1.
         -2    1    1    2  502    0 -0.70241690206E+01  0.23905419147E+02 -0.12476649489E+03  0.12723005254E+03  0.25500000000E-02 0.  1.
<mgrwt>
<rscale>  0 0.51692429E+02</rscale>
<asrwt>0</asrwt>
<pdfrwt beam="2">  1        1 0.30626254E-01 0.51692429E+02</pdfrwt>
<pdfrwt beam="1">  1       -1 0.51626573E-03 0.51692429E+02</pdfrwt>
<totfact> 0.51663897E+05</totfact>
</mgrwt>
</event>
<event>
 4    1  0.1893769E-002  0.6470030E+02  0.7818608E-02  0.1379102E+00
         -1   -1    0    0  501    0 -0.00000000000E+00  0.00000000000E+00  0.10818637632E+03  0.10818637643E+03  0.50400000000E-02 0. -1.
          1   -1    0    0    0  501  0.00000000000E+00 -0.00000000000E+00 -0.96734180163E+01  0.96734193293E+01  0.50400000000E-02 0. -1.
          2    1    1    2    0  502  0.27666732324E+02  0.13211527024E+02  0.30454008106E+02  0.43213876707E+02  0.25500000000E-02 0.  1.
         -2    1    1    2  502    0 -0.27666732324E+02 -0.13211527024E+02  0.68058950194E+02  0.74645919056E+02  0.25500000000E-02 0.  1.
<mgrwt>
<rscale>  0 0.64700298E+02</rscale>
<asrwt>0</asrwt>
<pdfrwt beam="2">  1        1 0.14882183E-02 0.64700298E+02</pdfrwt>
<pdfrwt beam="1">  1       -1 0.16644058E-01 0.64700298E+02</pdfrwt>
<totfact> 0.19268466E+05</totfact>
</mgrwt>
</event>
<event>
 4    1  0.1893769E-002  0.7321320E+02  0.7818608E-02  0.1349495E+00
          1   -1    0    0    0  501  0.00000000000E+00  0.00000000000E+00  0.17826470392E+02  0.17826471105E+02  0.50400000000E-02 0.  1.
         -1   -1    0    0  501    0 -0.00000000000E+00 -0.00000000000E+00 -0.75171524244E+02  0.75171524413E+02  0.50400000000E-02 0.  1.
          2    1    1    2    0  502 -0.29381559063E+02  0.17329993690E+02 -0.45545073984E+02  0.56903062000E+02  0.25500000000E-02 0. -1.
         -2    1    1    2  502    0  0.29381559063E+02 -0.17329993690E+02 -0.11799979867E+02  0.36094933518E+02  0.25500000000E-02 0. -1.
<mgrwt>
<rscale>  0 0.73213195E+02</rscale>
<asrwt>0</asrwt>
<pdfrwt beam="1">  1        1 0.27425340E-02 0.73213195E+02</pdfrwt>
<pdfrwt beam="2">  1       -1 0.11564850E-01 0.73213195E+02</pdfrwt>
<totfact> 0.14954521E+05</totfact>
</mgrwt>
</event>
<event>
 4    1  0.1893769E-002  0.1129076E+03  0.7818608E-02  0.1255278E+00
         -1   -1    0    0  501    0 -0.00000000000E+00  0.00000000000E+00  0.13338532060E+01  0.13338627278E+01  0.50400000000E-02 0. -1.
          1   -1    0    0    0  501  0.00000000000E+00 -0.00000000000E+00 -0.23893343939E+04  0.23893343939E+04  0.50400000000E-02 0. -1.
          2    1    1    2    0  502 -0.33493391879E+02 -0.11702328201E+02 -0.26421810470E+03  0.26658949462E+03  0.25500000000E-02 0. -1.
         -2    1    1    2  502    0  0.33493391879E+02  0.11702328201E+02 -0.21237824360E+04  0.21240787620E+04  0.25500000000E-02 0. -1.
<mgrwt>
<rscale>  0 0.11290762E+03</rscale>
<asrwt>0</asrwt>
<pdfrwt beam="2">  1        1 0.36758648E+00 0.11290762E+03</pdfrwt>
<pdfrwt beam="1">  1       -1 0.20521083E-03 0.11290762E+03</pdfrwt>
<totfact> 0.32558560E+04</totfact>
</mgrwt>
</event>
<event>
 4    1  0.1893769E-002  0.1687858E+03  0.7818608E-02  0.1179120E+00
         -1   -1    0    0  501    0 -0.00000000000E+00  0.00000000000E+00  0.17740989021E+02  0.17740989737E+02  0.50400000000E-02 0.  1.
          1   -1    0    0    0  501  0.00000000000E+00 -0.00000000000E+00 -0.40145242006E+03  0.40145242009E+03  0.50400000000E-02 0.  1.
          2    1    1    2    0  502  0.32545586739E+02 -0.53832733246E+00  0.15236056574E+01  0.32585677731E+02  0.25500000000E-02 0.  1.
         -2    1    1    2  502    0 -0.32545586739E+02  0.53832733246E+00 -0.38523503670E+03  0.38660773210E+03  0.25500000000E-02 0.  1.
<mgrwt>
<rscale>  0 0.16878582E+03</rscale>
<asrwt>0</asrwt>
<pdfrwt beam="2">  1        1 0.61761904E-01 0.16878582E+03</pdfrwt>
<pdfrwt beam="1">  1       -1 0.27293833E-02 0.16878582E+03</pdfrwt>
<totfact> 0.24953143E+04</totfact>
</mgrwt>
</event>
<event>
 4    1  0.1893769E-002  0.4259186E+02  0.7818608E-02  0.1489961E+00
          1   -1    0    0    0  501  0.00000000000E+00  0.00000000000E+00  0.13315662571E+02  0.13315663525E+02  0.50400000000E-02 0. -1.
         -1   -1    0    0  501    0 -0.00000000000E+00 -0.00000000000E+00 -0.34058890226E+02  0.34058890599E+02  0.50400000000E-02 0. -1.
          2    1    1    2    0  502 -0.18052679878E+02  0.10632776535E+02 -0.61271586734E+01  0.21828817364E+02  0.25500000000E-02 0.  1.
         -2    1    1    2  502    0  0.18052679878E+02 -0.10632776535E+02 -0.14616068981E+02  0.25545736759E+02  0.25500000000E-02 0.  1.
<mgrwt>
<rscale>  0 0.42591864E+02</rscale>
<asrwt>0</asrwt>
<pdfrwt beam="1">  1        1 0.20485636E-02 0.42591864E+02</pdfrwt>
<pdfrwt beam="2">  1       -1 0.52398293E-02 0.42591864E+02</pdfrwt>
<totfact> 0.62738952E+05</totfact>
</mgrwt>
</event>
<event>
 4    1  0.1893769E-002  0.1031048E+03  0.7818608E-02  0.1273899E+00
         -1   -1    0    0  501    0 -0.00000000000E+00  0.00000000000E+00  0.16232866642E+03  0.16232866650E+03  0.50400000000E-02 0.  1.
          1   -1    0    0    0  501  0.00000000000E+00 -0.00000000000E+00 -0.16372014895E+02  0.16372015670E+02  0.50400000000E-02 0.  1.
          2    1    1    2    0  502  0.14708949994E+02 -0.48247693138E+02  0.54517206228E+02  0.74271925278E+02  0.25500000000E-02 0. -1.
         -2    1    1    2  502    0 -0.14708949994E+02  0.48247693138E+02  0.91439445302E+02  0.10442875689E+03  0.25500000000E-02 0. -1.
<mgrwt>
<rscale>  0 0.10310475E+03</rscale>
<asrwt>0</asrwt>
<pdfrwt beam="2">  1        1 0.25187716E-02 0.10310475E+03</pdfrwt>
<pdfrwt beam="1">  1       -1 0.24973641E-01 0.10310475E+03</pdfrwt>
<totfact> 0.53255320E+04</totfact>
</mgrwt>
</event>
<event>
 4    1  0.1893769E-002  0.6908026E+02  0.7818608E-02  0.1363249E+00
         -1   -1    0    0  501    0 -0.00000000000E+00  0.00000000000E+00  0.11081561812E+02  0.11081562958E+02  0.50400000000E-02 0. -1.
          1   -1    0    0    0  501  0.00000000000E+00 -0.00000000000E+00 -0.10765816767E+03  0.10765816779E+03  0.50400000000E-02 0. -1.
          2    1    1    2    0  502 -0.20573900025E+02 -0.27622833216E+02 -0.43834339152E+02  0.55747247219E+02  0.25500000000E-02 0.  1.
         -2    1    1    2  502    0  0.20573900025E+02  0.27622833216E+02 -0.52742266710E+02  0.62992483530E+02  0.25500000000E-02 0.  1.
<mgrwt>
<rscale>  0 0.69080264E+02</rscale>
<asrwt>0</asrwt>
<pdfrwt beam="2">  1        1 0.16562794E-01 0.69080264E+02</pdfrwt>
<pdfrwt beam="1">  1       -1 0.17048558E-02 0.69080264E+02</pdfrwt>
<totfact> 0.22197481E+05</totfact>
</mgrwt>
</event>
<event>
 4    1  0.1893769E-002  0.4489906E+02  0.7818608E-02  0.1474973E+00
          1   -1    0    0    0  501  0.00000000000E+00  0.00000000000E+00  0.10559728813E+04  0.10559728813E+04  0.50400000000E-02 0.  1.
         -1   -1    0    0  501    0 -0.00000000000E+00 -0.00000000000E+00 -0.47725398592E+00  0.47728059742E+00  0.50400000000E-02 0.  1.
          2    1    1    2    0  502  0.14901049848E+02  0.16527418023E+02  0.59748590818E+03  0.59790016500E+03  0.25500000000E-02 0. -1.
         -2    1    1    2  502    0 -0.14901049848E+02 -0.16527418023E+02  0.45800971912E+03  0.45854999689E+03  0.25500000000E-02 0. -1.
<mgrwt>
<rscale>  0 0.44899057E+02</rscale>
<asrwt>0</asrwt>
<pdfrwt beam="1">  1        1 0.16245552E+00 0.44899057E+02</pdfrwt>
<pdfrwt beam="2">  1       -1 0.73426575E-04 0.44899057E+02</pdfrwt>
<totfact> 0.81479628E+05</totfact>
</mgrwt>
</event>
<event>
 4    1  0.1893769E-002  0.5125174E+02  0.7818608E-02  0.1438705E+00
          1   -1    0    0    0  501  0.00000000000E+00  0.00000000000E+00  0.58452601553E+01  0.58452623281E+01  0.50400000000E-02 0. -1.
         -1   -1    0    0  501    0 -0.00000000000E+00 -0.00000000000E+00 -0.11234490622E+03  0.11234490633E+03  0.50400000000E-02 0. -1.
          2    1    1    2    0  502  0.18635804592E+02  0.16686347059E+02 -0.66080770723E+02  0.70656886833E+02  0.25500000000E-02 0. -1.
         -2    1    1    2  502    0 -0.18635804592E+02 -0.16686347059E+02 -0.40418875337E+02  0.47533281824E+02  0.25500000000E-02 0. -1.
<mgrwt>
<rscale>  0 0.51251745E+02</rscale>
<asrwt>0</asrwt>
<pdfrwt beam="1">  1        1 0.89927105E-03 0.51251745E+02</pdfrwt>
<pdfrwt beam="2">  1       -1 0.17283830E-01 0.51251745E+02</pdfrwt>
<totfact> 0.34313739E+05</totfact>
</mgrwt>
</event>
<event>
 4    1  0.1893769E-002  0.6187375E+02  0.7818608E-02  0.1390133E+00
          1   -1    0    0    0  501  0.00000000000E+00  0.00000000000E+00  0.30125826118E+03  0.30125826122E+03  0.50400000000E-02 0.  1.
         -1   -1    0    0  501    0 -0.00000000000E+00 -0.00000000000E+00 -0.31769741225E+01  0.31769781203E+01  0.50400000000E-02 0.  1.
          2    1    1    2    0  502  0.56101356625E+01 -0.29554418302E+02  0.11350793602E+03  0.11742652515E+03  0.25500000000E-02 0. -1.
         -2    1    1    2  502    0 -0.56101356625E+01  0.29554418302E+02  0.18457335103E+03  0.18700871419E+03  0.25500000000E-02 0. -1.
<mgrwt>
<rscale>  0 0.61873753E+02</rscale>
<asrwt>0</asrwt>
<pdfrwt beam="1">  1        1 0.46347429E-01 0.61873753E+02</pdfrwt>
<pdfrwt beam="2">  1       -1 0.48876552E-03 0.61873753E+02</pdfrwt>
<totfact> 0.35272312E+05</totfact>
</mgrwt>
</event>
<event>
 4    1  0.1893769E-002  0.9593697E+02  0.7818608E-02  0.1289080E+00
         -1   -1    0    0  501    0 -0.00000000000E+00  0.00000000000E+00  0.81524666325E+02  0.81524666480E+02  0.50400000000E-02 0.  1.
          1   -1    0    0    0  501  0.00000000000E+00 -0.00000000000E+00 -0.28224285843E+02  0.28224286293E+02  0.50400000000E-02 0.  1.
          2    1    1    2    0  502  0.40704845899E+02  0.24125001999E+02  0.35663283052E+02  0.59251750739E+02  0.25500000000E-02 0.  1.
         -2    1    1    2  502    0 -0.40704845899E+02 -0.24125001999E+02  0.17637097429E+02  0.50497202034E+02  0.25500000000E-02 0.  1.
<mgrwt>
<rscale>  0 0.95936969E+02</rscale>
<asrwt>0</asrwt>
<pdfrwt beam="2">  1        1 0.43421978E-02 0.95936969E+02</pdfrwt>
<pdfrwt beam="1">  1       -1 0.12542257E-01 0.95936969E+02</pdfrwt>
<totfact> 0.74054692E+04</totfact>
</mgrwt>
</event>
<event>
 4    1  0.1893769E-002  0.4242153E+02  0.7818608E-02  0.1491112E+00
          1   -1    0    0    0  501  0.00000000000E+00  0.00000000000E+00  0.59785288627E+03  0.59785288629E+03  0.50400000000E-02 0.  1.
         -1   -1    0    0  501    0 -0.00000000000E+00 -0.00000000000E+00 -0.75251218856E+00  0.75252906624E+00  0.50400000000E-02 0.  1.
          2    1    1    2    0  502 -0.11079794636E+02 -0.17795342332E+02  0.34418876440E+03  0.34482653842E+03  0.25500000000E-02 0.  1.
         -2    1    1    2  502    0  0.11079794636E+02  0.17795342332E+02  0.25291160968E+03  0.25377887693E+03  0.25500000000E-02 0.  1.
<mgrwt>
<rscale>  0 0.42421534E+02</rscale>
<asrwt>0</asrwt>
<pdfrwt beam="1">  1        1 0.91977705E-01 0.42421534E+02</pdfrwt>
<pdfrwt beam="2">  1       -1 0.11577198E-03 0.42421534E+02</pdfrwt>
<totfact> 0.99021607E+05</totfact>
</mgrwt>
</event>
<event>
 4    1  0.1893769E-002  0.5277562E+02  0.7818608E-02  0.1430921E+00
         -1   -1    0    0  501    0 -0.00000000000E+00  0.00000000000E+00  0.28188655166E+02  0.28188655616E+02  0.50400000000E-02 0. -1.
          1   -1    0    0    0  501  0.00000000000E+00 -0.00000000000E+00 -0.24702013424E+02  0.24702013938E+02  0.50400000000E-02 0. -1.
          2    1    1    2    0  502 -0.44567607393E+01  0.25959222207E+02  0.13588440430E+00  0.26339369866E+02  0.25500000000E-02 0.  1.
         -2    1    1    2  502    0  0.44567607393E+01 -0.25959222207E+02  0.33507573375E+01  0.26551299688E+02  0.25500000000E-02 0.  1.
<mgrwt>
<rscale>  0 0.52775622E+02</rscale>
<asrwt>0</asrwt>
<pdfrwt beam="2">  1        1 0.38003098E-02 0.52775622E+02</pdfrwt>
<pdfrwt beam="1">  1       -1 0.43367163E-02 0.52775622E+02</pdfrwt>
<totfact> 0.37935850E+05</totfact>
</mgrwt>
</event>
<event>
 4    1  0.1893769E-002  0.6431955E+02  0.7818608E-02  0.1380550E+00
          1   -1    0    0    0  501  0.00000000000E+00  0.00000000000E+00  0.10562249522E+04  0.10562249523E+04  0.50400000000E-02 0.  1.
         -1   -1    0    0  501    0 -0.00000000000E+00 -0.00000000000E+00 -0.97918926944E+00  0.97920224008E+00  0.50400000000E-02 0.  1.
          2    1    1    2    0  502  0.18628887799E+02  0.17221549218E+02  0.20275948028E+03  0.20434046116E+03  0.25500000000E-02 0. -1.
         -2    1    1    2  502    0 -0.18628887799E+02 -0.17221549218E+02  0.85248628270E+03  0.85286369334E+03  0.25500000000E-02 0. -1.
<mgrwt>
<rscale>  0 0.64319546E+02</rscale>
<asrwt>0</asrwt>
<pdfrwt beam="1">  1        1 0.16249659E+00 0.64319546E+02</pdfrwt>
<pdfrwt beam="2">  1       -1 0.15064509E-03 0.64319546E+02</pdfrwt>
<totfact> 0.33142000E+05</totfact>
</mgrwt>
</event>
<event>
 4    1  0.1893769E-002  0.7818844E+02  0.7818608E-02  0.1334272E+00
         -1   -1    0    0  501    0 -0.00000000000E+00  0.00000000000E+00  0.94089084887E+02  0.94089085022E+02  0.50400000000E-02 0. -1.
          1   -1    0    0    0  501  0.00000000000E+00 -0.00000000000E+00 -0.16243733643E+02  0.16243734424E+02  0.50400000000E-02 0. -1.
          2    1    1    2    0  502 -0.20458906020E+02 -0.60500231198E+01 -0.73047979401E+01  0.22550602979E+02  0.25500000000E-02 0.  1.
         -2    1    1    2  502    0  0.20458906020E+02  0.60500231198E+01  0.85150149185E+02  0.87782216468E+02  0.25500000000E-02 0.  1.
<mgrwt>
<rscale>  0 0.78188441E+02</rscale>
<asrwt>0</asrwt>
<pdfrwt beam="2">  1        1 0.24990360E-02 0.78188441E+02</pdfrwt>
<pdfrwt beam="1">  1       -1 0.14475244E-01 0.78188441E+02</pdfrwt>
<totfact> 0.12200414E+05</totfact>
</mgrwt>
</event>
<event>
 4    1  0.1893769E-002  0.5227144E+02  0.7818608E-02  0.1433461E+00
         -1   -1    0    0  501    0 -0.00000000000E+00  0.00000000000E+00  0.13696837420E+04  0.13696837420E+04  0.50400000000E-02 0. -1.
          1   -1    0    0    0  501  0.00000000000E+00 -0.00000000000E+00 -0.49869790804E+00  0.49872337531E+00  0.50400000000E-02 0. -1.
          2    1    1    2    0  502 -0.22816228351E+02 -0.73462957447E+00  0.10181819927E+04  0.10184378677E+04  0.25500000000E-02 0.  1.
         -2    1    1    2  502    0  0.22816228351E+02  0.73462957447E+00  0.35100305132E+03  0.35174459769E+03  0.25500000000E-02 0.  1.
<mgrwt>
<rscale>  0 0.52271440E+02</rscale>
<asrwt>0</asrwt>
<pdfrwt beam="2">  1        1 0.76724020E-04 0.52271440E+02</pdfrwt>
<pdfrwt beam="1">  1       -1 0.21072248E+00 0.52271440E+02</pdfrwt>
<totfact> 0.67954781E+04</totfact>
</mgrwt>
</event>
<event>
 4    1  0.1893769E-002  0.5781219E+02  0.7818608E-02  0.1407249E+00
         -1   -1    0    0  501    0 -0.00000000000E+00  0.00000000000E+00  0.54032839198E+00  0.54035189718E+00  0.50400000000E-02 0.  1.
          1   -1    0    0    0  501  0.00000000000E+00 -0.00000000000E+00 -0.15463635819E+04  0.15463635819E+04  0.50400000000E-02 0.  1.
          2    1    1    2    0  502  0.28751488134E+02 -0.20786391878E+01 -0.83025940213E+03  0.83075967863E+03  0.25500000000E-02 0.  1.
         -2    1    1    2  502    0 -0.28751488134E+02  0.20786391878E+01 -0.71556385135E+03  0.71614425515E+03  0.25500000000E-02 0.  1.
<mgrwt>
<rscale>  0 0.57812190E+02</rscale>
<asrwt>0</asrwt>
<pdfrwt beam="2">  1        1 0.23789855E+00 0.57812190E+02</pdfrwt>
<pdfrwt beam="1">  1       -1 0.83130492E-04 0.57812190E+02</pdfrwt>
<totfact> 0.35060637E+05</totfact>
</mgrwt>
</event>
<event>
 4    1  0.1893769E-002  0.5740901E+02  0.7818608E-02  0.1409038E+00
         -1   -1    0    0  501    0 -0.00000000000E+00  0.00000000000E+00  0.30245045306E+03  0.30245045311E+03  0.50400000000E-02 0.  1.
          1   -1    0    0    0  501  0.00000000000E+00 -0.00000000000E+00 -0.27242404889E+01  0.27242451511E+01  0.50400000000E-02 0.  1.
          2    1    1    2    0  502  0.12460149672E+02 -0.16209613852E+02  0.42760445243E+02  0.47396862712E+02  0.25500000000E-02 0.  1.
         -2    1    1    2  502    0 -0.12460149672E+02  0.16209613852E+02  0.25696576733E+03  0.25777783555E+03  0.25500000000E-02 0.  1.
<mgrwt>
<rscale>  0 0.57409006E+02</rscale>
<asrwt>0</asrwt>
<pdfrwt beam="2">  1        1 0.41911425E-03 0.57409006E+02</pdfrwt>
<pdfrwt beam="1">  1       -1 0.46530842E-01 0.57409006E+02</pdfrwt>
<totfact> 0.19802736E+05</totfact>
</mgrwt>
</event>
<event>
 4    1  0.1893769E-002  0.5782647E+02  0.7818608E-02  0.1407186E+00
         -1   -1    0    0  501    0 -0.00000000000E+00  0.00000000000E+00  0.56399922689E+02  0.56399922914E+02  0.50400000000E-02 0.  1.
          1   -1    0    0    0  501  0.00000000000E+00 -0.00000000000E+00 -0.14822276452E+02  0.14822277309E+02  0.50400000000E-02 0.  1.
          2    1    1    2    0  502 -0.15203273763E+02  0.22061509921E+02  0.74025233278E+01  0.27796530561E+02  0.25500000000E-02 0. -1.
         -2    1    1    2  502    0  0.15203273763E+02 -0.22061509921E+02  0.34175122909E+02  0.43425669661E+02  0.25500000000E-02 0. -1.
<mgrwt>
<rscale>  0 0.57826474E+02</rscale>
<asrwt>0</asrwt>
<pdfrwt beam="2">  1        1 0.22803503E-02 0.57826474E+02</pdfrwt>
<pdfrwt beam="1">  1       -1 0.86769112E-02 0.57826474E+02</pdfrwt>
<totfact> 0.28126532E+05</totfact>
</mgrwt>
</event>
<event>
 4    1  0.1893769E-002  0.4711373E+02  0.7818608E-02  0.1461562E+00
         -1   -1    0    0  501    0 -0.00000000000E+00  0.00000000000E+00  0.10319405952E+02  0.10319407182E+02  0.50400000000E-02 0. -1.
          1   -1    0    0    0  501  0.00000000000E+00 -0.00000000000E+00 -0.53774980223E+02  0.53774980459E+02  0.50400000000E-02 0. -1.
          2    1    1    2    0  502  0.19191253522E+02 -0.13637008104E+02 -0.22827700101E+02  0.32792927594E+02  0.25500000000E-02 0. -1.
         -2    1    1    2  502    0 -0.19191253522E+02  0.13637008104E+02 -0.20627874170E+02  0.31301460047E+02  0.25500000000E-02 0. -1.
<mgrwt>
<rscale>  0 0.47113730E+02</rscale>
<asrwt>0</asrwt>
<pdfrwt beam="2">  1        1 0.82730738E-02 0.47113730E+02</pdfrwt>
<pdfrwt beam="1">  1       -1 0.15876011E-02 0.47113730E+02</pdfrwt>
<totfact> 0.54620751E+05</totfact>
</mgrwt>
</event>
<event>
 4    1  0.1893769E-002  0.4704528E+02  0.7818608E-02  0.1461963E+00
         -1   -1    0    0  501    0 -0.00000000000E+00  0.00000000000E+00  0.11507849308E+03  0.11507849319E+03  0.50400000000E-02 0. -1.
          1   -1    0    0    0  501  0.00000000000E+00 -0.00000000000E+00 -0.48081485892E+01  0.48081512307E+01  0.50400000000E-02 0. -1.
          2    1    1    2    0  502  0.12570744739E+02  0.19624283278E+02  0.47005044661E+02  0.52465325193E+02  0.25500000000E-02 0. -1.
         -2    1    1    2  502    0 -0.12570744739E+02 -0.19624283278E+02  0.63265299834E+02  0.67421319232E+02  0.25500000000E-02 0. -1.
<mgrwt>
<rscale>  0 0.47045283E+02</rscale>
<asrwt>0</asrwt>
<pdfrwt beam="2">  1        1 0.73971539E-03 0.47045283E+02</pdfrwt>
<pdfrwt beam="1">  1       -1 0.17704383E-01 0.47045283E+02</pdfrwt>
<totfact> 0.42208921E+05</totfact>
</mgrwt>
</event>
<event>
 4    1  0.1893769E-002  0.8737758E+02  0.7818608E-02  0.1309329E+00
         -1   -1    0    0  501    0 -0.00000000000E+00  0.00000000000E+00  0.19888467138E+03  0.19888467144E+03  0.50400000000E-02 0.  1.
          1   -1    0    0    0  501  0.00000000000E+00 -0.00000000000E+00 -0.95970701631E+01  0.95970714866E+01  0.50400000000E-02 0.  1.
          2    1    1    2    0  502  0.38158316133E+02  0.11235042184E+02  0.51535482733E+02  0.65101376713E+02  0.25500000000E-02 0. -1.
         -2    1    1    2  502    0 -0.38158316133E+02 -0.11235042184E+02  0.13775211848E+03  0.14338036621E+03  0.25500000000E-02 0. -1.
<mgrwt>
<rscale>  0 0.87377578E+02</rscale>
<asrwt>0</asrwt>
<pdfrwt beam="2">  1        1 0.14764725E-02 0.87377578E+02</pdfrwt>
<pdfrwt beam="1">  1       -1 0.30597640E-01 0.87377578E+02</pdfrwt>
<totfact> 0.77672963E+04</totfact>
</mgrwt>
</event>
<event>
 4    1  0.1893769E-002  0.4872090E+02  0.7818608E-02  0.1452365E+00
         -1   -1    0    0  501    0 -0.00000000000E+00  0.00000000000E+00  0.47092136007E+00  0.47094832941E+00  0.50400000000E-02 0.  1.
          1   -1    0    0    0  501  0.00000000000E+00 -0.00000000000E+00 -0.12601139224E+04  0.12601139225E+04  0.50400000000E-02 0.  1.
          2    1    1    2    0  502 -0.14509177156E+02 -0.15402093366E+02 -0.94212217654E+03  0.94235977006E+03  0.25500000000E-02 0.  1.
         -2    1    1    2  502    0  0.14509177156E+02  0.15402093366E+02 -0.31752082455E+03  0.31822510072E+03  0.25500000000E-02 0.  1.
<mgrwt>
<rscale>  0 0.48720902E+02</rscale>
<asrwt>0</asrwt>
<pdfrwt beam="2">  1        1 0.19386098E+00 0.48720902E+02</pdfrwt>
<pdfrwt beam="1">  1       -1 0.72452524E-04 0.48720902E+02</pdfrwt>
<totfact> 0.61919923E+05</totfact>
</mgrwt>
</event>
<event>
 4    1  0.1893769E-002  0.1187948E+03  0.7818608E-02  0.1245099E+00
         -1   -1    0    0  501    0 -0.00000000000E+00  0.00000000000E+00  0.40974851442E+03  0.40974851445E+03  0.50400000000E-02 0. -1.
          1   -1    0    0    0  501  0.00000000000E+00 -0.00000000000E+00 -0.86102764381E+01  0.86102779132E+01  0.50400000000E-02 0. -1.
          2    1    1    2    0  502  0.41303918983E+02 -0.34925731710E+02  0.11414557839E+03  0.12631323577E+03  0.25500000000E-02 0. -1.
         -2    1    1    2  502    0 -0.41303918983E+02  0.34925731710E+02  0.28699265959E+03  0.29204555659E+03  0.25500000000E-02 0. -1.
<mgrwt>
<rscale>  0 0.11879475E+03</rscale>
<asrwt>0</asrwt>
<pdfrwt beam="2">  1        1 0.13246581E-02 0.11879475E+03</pdfrwt>
<pdfrwt beam="1">  1       -1 0.63038228E-01 0.11879475E+03</pdfrwt>
<totfact> 0.26142424E+04</totfact>
</mgrwt>
</event>
<event>
 4    1  0.1893769E-002  0.5243673E+02  0.7818608E-02  0.1432625E+00
         -1   -1    0    0  501    0 -0.00000000000E+00  0.00000000000E+00  0.34321418931E+00  0.34325119278E+00  0.50400000000E-02 0.  1.
          1   -1    0    0    0  501  0.00000000000E+00 -0.00000000000E+00 -0.20027303890E+04  0.20027303890E+04  0.50400000000E-02 0.  1.
          2    1    1    2    0  502 -0.19737080941E+02  0.11368707227E+02 -0.14972071881E+04  0.14973804340E+04  0.25500000000E-02 0.  1.
         -2    1    1    2  502    0  0.19737080941E+02 -0.11368707227E+02 -0.50517998662E+03  0.50569320616E+03  0.25500000000E-02 0.  1.
<mgrwt>
<rscale>  0 0.52436726E+02</rscale>
<asrwt>0</asrwt>
<pdfrwt beam="2">  1        1 0.30810301E+00 0.52436726E+02</pdfrwt>
<pdfrwt beam="1">  1       -1 0.52806634E-04 0.52436726E+02</pdfrwt>
<totfact> 0.33318733E+05</totfact>
</mgrwt>
</event>
<event>
 4    1  0.1893769E-002  0.4917774E+02  0.7818608E-02  0.1449828E+00
         -1   -1    0    0  501    0 -0.00000000000E+00  0.00000000000E+00  0.13204910759E+02  0.13204911721E+02  0.50400000000E-02 0.  1.
          1   -1    0    0    0  501  0.00000000000E+00 -0.00000000000E+00 -0.45786950959E+02  0.45786951236E+02  0.50400000000E-02 0.  1.
          2    1    1    2    0  502  0.22665071027E+02 -0.94994545014E+01 -0.15310930663E+02  0.28954614222E+02  0.25500000000E-02 0. -1.
         -2    1    1    2  502    0 -0.22665071027E+02  0.94994545014E+01 -0.17271109537E+02  0.30037248736E+02  0.25500000000E-02 0. -1.
<mgrwt>
<rscale>  0 0.49177744E+02</rscale>
<asrwt>0</asrwt>
<pdfrwt beam="2">  1        1 0.70441463E-02 0.49177744E+02</pdfrwt>
<pdfrwt beam="1">  1       -1 0.20315248E-02 0.49177744E+02</pdfrwt>
<totfact> 0.48225513E+05</totfact>
</mgrwt>
</event>
<event>
 4    1  0.1893769E-002  0.6060281E+02  0.7818608E-02  0.1395319E+00
         -1   -1    0    0  501    0 -0.00000000000E+00  0.00000000000E+00  0.25833909927E+01  0.25833959091E+01  0.50400000000E-02 0. -1.
          1   -1    0    0    0  501  0.00000000000E+00 -0.00000000000E+00 -0.35541440916E+03  0.35541440920E+03  0.50400000000E-02 0. -1.
          2    1    1    2    0  502 -0.30286622116E+02 -0.44695114875E+00 -0.17148719900E+03  0.17414172008E+03  0.25500000000E-02 0. -1.
         -2    1    1    2  502    0  0.30286622116E+02  0.44695114875E+00 -0.18134381917E+03  0.18385608503E+03  0.25500000000E-02 0. -1.
<mgrwt>
<rscale>  0 0.60602814E+02</rscale>
<asrwt>0</asrwt>
<pdfrwt beam="2">  1        1 0.54679102E-01 0.60602814E+02</pdfrwt>
<pdfrwt beam="1">  1       -1 0.39744543E-03 0.60602814E+02</pdfrwt>
<totfact> 0.38271326E+05</totfact>
</mgrwt>
</event>
<event>
 4    1  0.1893769E-002  0.4347094E+02  0.7818608E-02  0.1484119E+00
         -1   -1    0    0  501    0 -0.00000000000E+00  0.00000000000E+00  0.95662981795E+00  0.95664309447E+00  0.50400000000E-02 0. -1.
          1   -1    0    0    0  501  0.00000000000E+00 -0.00000000000E+00 -0.49384551024E+03  0.49384551026E+03  0.50400000000E-02 0. -1.
          2    1    1    2    0  502  0.45939019674E+01 -0.21235931116E+02 -0.25329204166E+03  0.25422220021E+03  0.25500000000E-02 0.  1.
         -2    1    1    2  502    0 -0.45939019674E+01  0.21235931116E+02 -0.23959683876E+03  0.24057995315E+03  0.25500000000E-02 0.  1.
<mgrwt>
<rscale>  0 0.43470939E+02</rscale>
<asrwt>0</asrwt>
<pdfrwt beam="2">  1        1 0.75976030E-01 0.43470939E+02</pdfrwt>
<pdfrwt beam="1">  1       -1 0.14717524E-03 0.43470939E+02</pdfrwt>
<totfact> 0.91841949E+05</totfact>
</mgrwt>
</event>
<event>
 4    1  0.1893769E-002  0.1010216E+03  0.7818608E-02  0.1278162E+00
          1   -1    0    0    0  501  0.00000000000E+00  0.00000000000E+00  0.45711692307E+03  0.45711692309E+03  0.50400000000E-02 0. -1.
         -1   -1    0    0  501    0 -0.00000000000E+00 -0.00000000000E+00 -0.55813788110E+01  0.55813810866E+01  0.50400000000E-02 0. -1.
          2    1    1    2    0  502  0.50239140846E+02 -0.42386828352E+01  0.23981449774E+03  0.24505699548E+03  0.25500000000E-02 0.  1.
         -2    1    1    2  502    0 -0.50239140846E+02  0.42386828352E+01  0.21172104652E+03  0.21764130870E+03  0.25500000000E-02 0.  1.
<mgrwt>
<rscale>  0 0.10102165E+03</rscale>
<asrwt>0</asrwt>
<pdfrwt beam="1">  1        1 0.70325680E-01 0.10102165E+03</pdfrwt>
<pdfrwt beam="2">  1       -1 0.85867384E-03 0.10102165E+03</pdfrwt>
<totfact> 0.10473467E+05</totfact>
</mgrwt>
</event>
<event>
 4    1  0.1893769E-002  0.4400240E+02  0.7818608E-02  0.1480667E+00
          1   -1    0    0    0  501  0.00000000000E+00  0.00000000000E+00  0.20900549505E+03  0.20900549511E+03  0.50400000000E-02 0. -1.
         -1   -1    0    0  501    0 -0.00000000000E+00 -0.00000000000E+00 -0.23159787507E+01  0.23159842347E+01  0.50400000000E-02 0. -1.
          2    1    1    2    0  502 -0.45728208101E+01  0.21346283663E+02  0.11647794400E+03  0.11850605876E+03  0.25500000000E-02 0.  1.
         -2    1    1    2  502    0  0.45728208101E+01 -0.21346283663E+02  0.90211572299E+02  0.92815420591E+02  0.25500000000E-02 0.  1.
<mgrwt>
<rscale>  0 0.44002403E+02</rscale>
<asrwt>0</asrwt>
<pdfrwt beam="1">  1        1 0.32154702E-01 0.44002403E+02</pdfrwt>
<pdfrwt beam="2">  1       -1 0.35630474E-03 0.44002403E+02</pdfrwt>
<totfact> 0.77788291E+05</totfact>
</mgrwt>
</event>
<event>
 4    1  0.1893769E-002  0.5860626E+02  0.7818608E-02  0.1403775E+00
         -1   -1    0    0  501    0 -0.00000000000E+00  0.00000000000E+00  0.13134312899E+02  0.13134313866E+02  0.50400000000E-02 0.  1.
          1   -1    0    0    0  501  0.00000000000E+00 -0.00000000000E+00 -0.65376335927E+02  0.65376336122E+02  0.50400000000E-02 0.  1.
          2    1    1    2    0  502  0.22807415992E+02  0.18266362211E+02 -0.29066696987E+02  0.41215422998E+02  0.25500000000E-02 0. -1.
         -2    1    1    2  502    0 -0.22807415992E+02 -0.18266362211E+02 -0.23175326041E+02  0.37295226990E+02  0.25500000000E-02 0. -1.
<mgrwt>
<rscale>  0 0.58606256E+02</rscale>
<asrwt>0</asrwt>
<pdfrwt beam="2">  1        1 0.10057898E-01 0.58606256E+02</pdfrwt>
<pdfrwt beam="1">  1       -1 0.20206637E-02 0.58606256E+02</pdfrwt>
<totfact> 0.31886147E+05</totfact>
</mgrwt>
</event>
<event>
 4    1  0.1893769E-002  0.6607224E+02  0.7818608E-02  0.1373983E+00
         -1   -1    0    0  501    0 -0.00000000000E+00  0.00000000000E+00  0.24027910407E+03  0.24027910412E+03  0.50400000000E-02 0.  1.
          1   -1    0    0    0  501  0.00000000000E+00 -0.00000000000E+00 -0.45421552735E+01  0.45421580697E+01  0.50400000000E-02 0.  1.
          2    1    1    2    0  502 -0.12114474423E+02 -0.28550097021E+02  0.16003745956E+03  0.16301489809E+03  0.25500000000E-02 0.  1.
         -2    1    1    2  502    0  0.12114474423E+02  0.28550097021E+02  0.75699489231E+02  0.81806364097E+02  0.25500000000E-02 0.  1.
<mgrwt>
<rscale>  0 0.66072244E+02</rscale>
<asrwt>0</asrwt>
<pdfrwt beam="2">  1        1 0.69879359E-03 0.66072244E+02</pdfrwt>
<pdfrwt beam="1">  1       -1 0.36966003E-01 0.66072244E+02</pdfrwt>
<totfact> 0.15061159E+05</totfact>
</mgrwt>
</event>
<event>
 4    1  0.1893769E-002  0.4941560E+02  0.7818608E-02  0.1448519E+00
          1   -1    0    0    0  501  0.00000000000E+00  0.00000000000E+00  0.16215879085E+03  0.16215879093E+03  0.50400000000E-02 0.  1.
         -1   -1    0    0  501    0 -0.00000000000E+00 -0.00000000000E+00 -0.37646742248E+01  0.37646775985E+01  0.50400000000E-02 0.  1.
          2    1    1    2    0  502  0.22703332340E+02  0.74332068231E+01  0.10037501254E+03  0.10317866549E+03  0.25500000000E-02 0.  1.
         -2    1    1    2  502    0 -0.22703332340E+02 -0.74332068231E+01  0.58019104085E+02  0.62744803038E+02  0.25500000000E-02 0.  1.
<mgrwt>
<rscale>  0 0.49415597E+02</rscale>
<asrwt>0</asrwt>
<pdfrwt beam="1">  1        1 0.24947511E-01 0.49415597E+02</pdfrwt>
<pdfrwt beam="2">  1       -1 0.57918082E-03 0.49415597E+02</pdfrwt>
<totfact> 0.55880418E+05</totfact>
</mgrwt>
</event>
<event>
 4    1  0.1893769E-002  0.5551357E+02  0.7818608E-02  0.1417686E+00
          1   -1    0    0    0  501  0.00000000000E+00  0.00000000000E+00  0.57530409890E+01  0.57530431967E+01  0.50400000000E-02 0.  1.
         -1   -1    0    0  501    0 -0.00000000000E+00 -0.00000000000E+00 -0.13391855517E+03  0.13391855526E+03  0.50400000000E-02 0.  1.
          2    1    1    2    0  502 -0.16172164482E+02  0.18093462706E+02 -0.30184347705E+02  0.38729925763E+02  0.25500000000E-02 0. -1.
         -2    1    1    2  502    0  0.16172164482E+02 -0.18093462706E+02 -0.97981166474E+02  0.10094167270E+03  0.25500000000E-02 0. -1.
<mgrwt>
<rscale>  0 0.55513569E+02</rscale>
<asrwt>0</asrwt>
<pdfrwt beam="1">  1        1 0.88508351E-03 0.55513569E+02</pdfrwt>
<pdfrwt beam="2">  1       -1 0.20602852E-01 0.55513569E+02</pdfrwt>
<totfact> 0.27187089E+05</totfact>
</mgrwt>
</event>
<event>
 4    1  0.1893769E-002  0.4863097E+02  0.7818608E-02  0.1452869E+00
         -1   -1    0    0  501    0 -0.00000000000E+00  0.00000000000E+00  0.10359252237E+03  0.10359252249E+03  0.50400000000E-02 0. -1.
          1   -1    0    0    0  501  0.00000000000E+00 -0.00000000000E+00 -0.57073867657E+01  0.57073889911E+01  0.50400000000E-02 0. -1.
          2    1    1    2    0  502  0.60974058211E+01 -0.20333807778E+02  0.22292364639E+02  0.30782976207E+02  0.25500000000E-02 0.  1.
         -2    1    1    2  502    0 -0.60974058211E+01  0.20333807778E+02  0.75592770967E+02  0.78516935278E+02  0.25500000000E-02 0.  1.
<mgrwt>
<rscale>  0 0.48630966E+02</rscale>
<asrwt>0</asrwt>
<pdfrwt beam="2">  1        1 0.87805971E-03 0.48630966E+02</pdfrwt>
<pdfrwt beam="1">  1       -1 0.15937311E-01 0.48630966E+02</pdfrwt>
<totfact> 0.39625459E+05</totfact>
</mgrwt>
</event>
<event>
 4    1  0.1893769E-002  0.1277083E+03  0.7818608E-02  0.1230896E+00
          1   -1    0    0    0  501  0.00000000000E+00  0.00000000000E+00  0.22449211024E+04  0.22449211024E+04  0.50400000000E-02 0.  1.
         -1   -1    0    0  501    0 -0.00000000000E+00 -0.00000000000E+00 -0.18162521798E+01  0.18162591727E+01  0.50400000000E-02 0.  1.
          2    1    1    2    0  502 -0.54163917813E+02 -0.33180894414E+02  0.12364438115E+04  0.12380743115E+04  0.25500000000E-02 0.  1.
         -2    1    1    2  502    0  0.54163917813E+02  0.33180894414E+02  0.10066610386E+04  0.10086630500E+04  0.25500000000E-02 0.  1.
<mgrwt>
<rscale>  0 0.12770827E+03</rscale>
<asrwt>0</asrwt>
<pdfrwt beam="1">  1        1 0.34537188E+00 0.12770827E+03</pdfrwt>
<pdfrwt beam="2">  1       -1 0.27942443E-03 0.12770827E+03</pdfrwt>
<totfact> 0.26391377E+04</totfact>
</mgrwt>
</event>
<event>
 4    1  0.1893769E-002  0.5678856E+02  0.7818608E-02  0.1411825E+00
          1   -1    0    0    0  501  0.00000000000E+00  0.00000000000E+00  0.15581886263E+04  0.15581886263E+04  0.50400000000E-02 0.  1.
         -1   -1    0    0  501    0 -0.00000000000E+00 -0.00000000000E+00 -0.51740595673E+00  0.51743050321E+00  0.50400000000E-02 0.  1.
          2    1    1    2    0  502 -0.22939328286E+02 -0.64674958698E+01  0.12024480292E+04  0.12026842080E+04  0.25500000000E-02 0.  1.
         -2    1    1    2  502    0  0.22939328286E+02  0.64674958698E+01  0.35522319119E+03  0.35602184883E+03  0.25500000000E-02 0.  1.
<mgrwt>
<rscale>  0 0.56788563E+02</rscale>
<asrwt>0</asrwt>
<pdfrwt beam="1">  1        1 0.23972295E+00 0.56788563E+02</pdfrwt>
<pdfrwt beam="2">  1       -1 0.79602266E-04 0.56788563E+02</pdfrwt>
<totfact> 0.36438595E+05</totfact>
</mgrwt>
</event>
<event>
 4    1  0.1893769E-002  0.4641601E+02  0.7818608E-02  0.1465691E+00
          1   -1    0    0    0  501  0.00000000000E+00  0.00000000000E+00  0.27456991410E+02  0.27456991872E+02  0.50400000000E-02 0.  1.
         -1   -1    0    0  501    0 -0.00000000000E+00 -0.00000000000E+00 -0.19616548425E+02  0.19616549073E+02  0.50400000000E-02 0.  1.
          2    1    1    2    0  502  0.19157877992E+02 -0.12073126456E+02  0.90742161837E+01  0.24395206033E+02  0.25500000000E-02 0. -1.
         -2    1    1    2  502    0 -0.19157877992E+02  0.12073126456E+02 -0.12337731993E+01  0.22678334912E+02  0.25500000000E-02 0. -1.
<mgrwt>
<rscale>  0 0.46416007E+02</rscale>
<asrwt>0</asrwt>
<pdfrwt beam="1">  1        1 0.42241526E-02 0.46416007E+02</pdfrwt>
<pdfrwt beam="2">  1       -1 0.30179306E-02 0.46416007E+02</pdfrwt>
<totfact> 0.53430016E+05</totfact>
</mgrwt>
</event>
<event>
 4    1  0.1893769E-002  0.8276428E+02  0.7818608E-02  0.1321385E+00
         -1   -1    0    0  501    0 -0.00000000000E+00  0.00000000000E+00  0.80165243505E+00  0.80166827817E+00  0.50400000000E-02 0.  1.
          1   -1    0    0    0  501  0.00000000000E+00 -0.00000000000E+00 -0.21361682870E+04  0.21361682870E+04  0.50400000000E-02 0.  1.
          2    1    1    2    0  502  0.31138771290E+02  0.23623123034E+02 -0.71667774766E+03  0.71774275964E+03  0.25500000000E-02 0. -1.
         -2    1    1    2  502    0 -0.31138771290E+02 -0.23623123034E+02 -0.14186888869E+04  0.14192271957E+04  0.25500000000E-02 0. -1.
<mgrwt>
<rscale>  0 0.82764278E+02</rscale>
<asrwt>0</asrwt>
<pdfrwt beam="2">  1        1 0.32863672E+00 0.82764278E+02</pdfrwt>
<pdfrwt beam="1">  1       -1 0.12333407E-03 0.82764278E+02</pdfrwt>
<totfact> 0.92691106E+04</totfact>
</mgrwt>
</event>
<event>
 4    1  0.1893769E-002  0.4608023E+02  0.7818608E-02  0.1467709E+00
         -1   -1    0    0  501    0 -0.00000000000E+00  0.00000000000E+00  0.52926061451E+00  0.52928461121E+00  0.50400000000E-02 0.  1.
          1   -1    0    0    0  501  0.00000000000E+00 -0.00000000000E+00 -0.10029743968E+04  0.10029743968E+04  0.50400000000E-02 0.  1.
          2    1    1    2    0  502  0.60033805880E+01 -0.21910760791E+02 -0.58478865238E+03  0.58522977537E+03  0.25500000000E-02 0. -1.
         -2    1    1    2  502    0 -0.60033805880E+01  0.21910760791E+02 -0.41765648376E+03  0.41827390602E+03  0.25500000000E-02 0. -1.
<mgrwt>
<rscale>  0 0.46080230E+02</rscale>
<asrwt>0</asrwt>
<pdfrwt beam="2">  1        1 0.15430223E+00 0.46080230E+02</pdfrwt>
<pdfrwt beam="1">  1       -1 0.81427360E-04 0.46080230E+02</pdfrwt>
<totfact> 0.77587856E+05</totfact>
</mgrwt>
</event>
<event>
 4    1  0.1893769E-002  0.4219045E+02  0.7818608E-02  0.1492684E+00
          1   -1    0    0    0  501  0.00000000000E+00  0.00000000000E+00  0.29114996637E+02  0.29114997073E+02  0.50400000000E-02 0. -1.
         -1   -1    0    0  501    0 -0.00000000000E+00 -0.00000000000E+00 -0.15284512695E+02  0.15284513526E+02  0.50400000000E-02 0. -1.
          2    1    1    2    0  502  0.16811705747E+02 -0.11584334544E+02  0.13289786886E+01  0.20459629708E+02  0.25500000000E-02 0.  1.
         -2    1    1    2  502    0 -0.16811705747E+02  0.11584334544E+02  0.12501505254E+02  0.23939880891E+02  0.25500000000E-02 0.  1.
<mgrwt>
<rscale>  0 0.42190452E+02</rscale>
<asrwt>0</asrwt>
<pdfrwt beam="1">  1        1 0.44792303E-02 0.42190452E+02</pdfrwt>
<pdfrwt beam="2">  1       -1 0.23514636E-02 0.42190452E+02</pdfrwt>
<totfact> 0.68431758E+05</totfact>
</mgrwt>
</event>
<event>
 4    1  0.1893769E-002  0.4479603E+02  0.7818608E-02  0.1475619E+00
          1   -1    0    0    0  501  0.00000000000E+00  0.00000000000E+00  0.26172970321E+01  0.26173018847E+01  0.50400000000E-02 0.  1.
         -1   -1    0    0  501    0 -0.00000000000E+00 -0.00000000000E+00 -0.19167504681E+03  0.19167504688E+03  0.50400000000E-02 0.  1.
          2    1    1    2    0  502  0.13778653027E+02 -0.17622586510E+02 -0.89652258563E+02  0.92400943212E+02  0.25500000000E-02 0. -1.
         -2    1    1    2  502    0 -0.13778653027E+02  0.17622586510E+02 -0.99405491218E+02  0.10189140555E+03  0.25500000000E-02 0. -1.
<mgrwt>
<rscale>  0 0.44796027E+02</rscale>
<asrwt>0</asrwt>
<pdfrwt beam="1">  1        1 0.40266161E-03 0.44796027E+02</pdfrwt>
<pdfrwt beam="2">  1       -1 0.29488458E-01 0.44796027E+02</pdfrwt>
<totfact> 0.42515673E+05</totfact>
</mgrwt>
</event>
<event>
 4    1  0.1893769E-002  0.5739856E+02  0.7818608E-02  0.1409085E+00
          1   -1    0    0    0  501  0.00000000000E+00  0.00000000000E+00  0.10313148683E+04  0.10313148683E+04  0.50400000000E-02 0. -1.
         -1   -1    0    0  501    0 -0.00000000000E+00 -0.00000000000E+00 -0.79863134407E+00  0.79864724712E+00  0.50400000000E-02 0. -1.
          2    1    1    2    0  502  0.80819279254E+01  0.26924157223E+02  0.41130564862E+03  0.41226516272E+03  0.25500000000E-02 0. -1.
         -2    1    1    2  502    0 -0.80819279254E+01 -0.26924157223E+02  0.61921058831E+03  0.61984835282E+03  0.25500000000E-02 0. -1.
<mgrwt>
<rscale>  0 0.57398557E+02</rscale>
<asrwt>0</asrwt>
<pdfrwt beam="1">  1        1 0.15866375E+00 0.57398557E+02</pdfrwt>
<pdfrwt beam="2">  1       -1 0.12286765E-03 0.57398557E+02</pdfrwt>
<totfact> 0.44559910E+05</totfact>
</mgrwt>
</event>
<event>
 4    1  0.1893769E-002  0.5480916E+02  0.7818608E-02  0.1421004E+00
          1   -1    0    0    0  501  0.00000000000E+00  0.00000000000E+00  0.95956034185E+01  0.95956047421E+01  0.50400000000E-02 0. -1.
         -1   -1    0    0  501    0 -0.00000000000E+00 -0.00000000000E+00 -0.78266138694E+02  0.78266138856E+02  0.50400000000E-02 0. -1.
          2    1    1    2    0  502 -0.13966687765E+02  0.23426075973E+02 -0.38625178033E+02  0.47283758176E+02  0.25500000000E-02 0.  1.
         -2    1    1    2  502    0  0.13966687765E+02 -0.23426075973E+02 -0.30045357243E+02  0.40577985423E+02  0.25500000000E-02 0.  1.
<mgrwt>
<rscale>  0 0.54809156E+02</rscale>
<asrwt>0</asrwt>
<pdfrwt beam="1">  1        1 0.14762468E-02 0.54809156E+02</pdfrwt>
<pdfrwt beam="2">  1       -1 0.12040944E-01 0.54809156E+02</pdfrwt>
<totfact> 0.30776962E+05</totfact>
</mgrwt>
</event>
<event>
 4    1  0.1893769E-002  0.4046322E+02  0.7818608E-02  0.1504830E+00
         -1   -1    0    0  501    0 -0.00000000000E+00  0.00000000000E+00  0.17314877850E+01  0.17314951202E+01  0.50400000000E-02 0. -1.
          1   -1    0    0    0  501  0.00000000000E+00 -0.00000000000E+00 -0.23639617360E+03  0.23639617366E+03  0.50400000000E-02 0. -1.
          2    1    1    2    0  502  0.19558105877E+02 -0.49417708541E+01 -0.10825838969E+03  0.11012183957E+03  0.25500000000E-02 0. -1.
         -2    1    1    2  502    0 -0.19558105877E+02  0.49417708541E+01 -0.12640629613E+03  0.12800582921E+03  0.25500000000E-02 0. -1.
<mgrwt>
<rscale>  0 0.40463216E+02</rscale>
<asrwt>0</asrwt>
<pdfrwt beam="2">  1        1 0.36368617E-01 0.40463216E+02</pdfrwt>
<pdfrwt beam="1">  1       -1 0.26638349E-03 0.40463216E+02</pdfrwt>
<totfact> 0.97551261E+05</totfact>
</mgrwt>
</event>
<event>
 4    1  0.1893769E-002  0.1002233E+03  0.7818608E-02  0.1279827E+00
         -1   -1    0    0  501    0 -0.00000000000E+00  0.00000000000E+00  0.42769415155E+01  0.42769444851E+01  0.50400000000E-02 0.  1.
          1   -1    0    0    0  501  0.00000000000E+00 -0.00000000000E+00 -0.58714321790E+03  0.58714321792E+03  0.50400000000E-02 0.  1.
          2    1    1    2    0  502  0.50079913462E+02 -0.11042082615E+01 -0.29969683463E+03  0.30385425734E+03  0.25500000000E-02 0. -1.
         -2    1    1    2  502    0 -0.50079913462E+02  0.11042082615E+01 -0.28316944175E+03  0.28756590507E+03  0.25500000000E-02 0. -1.
<mgrwt>
<rscale>  0 0.10022331E+03</rscale>
<asrwt>0</asrwt>
<pdfrwt beam="2">  1        1 0.90329662E-01 0.10022331E+03</pdfrwt>
<pdfrwt beam="1">  1       -1 0.65799170E-03 0.10022331E+03</pdfrwt>
<totfact> 0.10993899E+05</totfact>
</mgrwt>
</event>
<event>
 4    1  0.1893769E-002  0.4671377E+02  0.7818608E-02  0.1463918E+00
         -1   -1    0    0  501    0 -0.00000000000E+00  0.00000000000E+00  0.17888084321E+03  0.17888084328E+03  0.50400000000E-02 0.  1.
          1   -1    0    0    0  501  0.00000000000E+00 -0.00000000000E+00 -0.30497605387E+01  0.30497647032E+01  0.50400000000E-02 0.  1.
          2    1    1    2    0  502 -0.21212969377E+02 -0.31558306269E+01  0.51883864658E+02  0.56141649023E+02  0.25500000000E-02 0.  1.
         -2    1    1    2  502    0  0.21212969377E+02  0.31558306269E+01  0.12394721801E+03  0.12578895896E+03  0.25500000000E-02 0.  1.
<mgrwt>
<rscale>  0 0.46713772E+02</rscale>
<asrwt>0</asrwt>
<pdfrwt beam="2">  1        1 0.46919412E-03 0.46713772E+02</pdfrwt>
<pdfrwt beam="1">  1       -1 0.27520138E-01 0.46713772E+02</pdfrwt>
<totfact> 0.39055480E+05</totfact>
</mgrwt>
</event>
<event>
 4    1  0.1893769E-002  0.4604555E+02  0.7818608E-02  0.1467918E+00
          1   -1    0    0    0  501  0.00000000000E+00  0.00000000000E+00  0.39099493275E+03  0.39099493278E+03  0.50400000000E-02 0. -1.
         -1   -1    0    0  501    0 -0.00000000000E+00 -0.00000000000E+00 -0.13556346326E+01  0.13556440015E+01  0.50400000000E-02 0. -1.
          2    1    1    2    0  502 -0.55897456012E+01  0.22329441165E+02  0.19101936302E+03  0.19240126365E+03  0.25500000000E-02 0.  1.
         -2    1    1    2  502    0  0.55897456012E+01 -0.22329441165E+02  0.19861993510E+03  0.19994931314E+03  0.25500000000E-02 0.  1.
<mgrwt>
<rscale>  0 0.46045548E+02</rscale>
<asrwt>0</asrwt>
<pdfrwt beam="1">  1        1 0.60153155E-01 0.46045548E+02</pdfrwt>
<pdfrwt beam="2">  1       -1 0.20855959E-03 0.46045548E+02</pdfrwt>
<totfact> 0.77327189E+05</totfact>
</mgrwt>
</event>
<event>
 4    1  0.1893769E-002  0.6034281E+02  0.7818608E-02  0.1396399E+00
         -1   -1    0    0  501    0 -0.00000000000E+00  0.00000000000E+00  0.12484480443E+04  0.12484480443E+04  0.50400000000E-02 0. -1.
          1   -1    0    0    0  501  0.00000000000E+00 -0.00000000000E+00 -0.72914753910E+00  0.72916495759E+00  0.50400000000E-02 0. -1.
          2    1    1    2    0  502 -0.18562637188E+02 -0.23463834163E+02  0.54317548924E+03  0.54399883744E+03  0.25500000000E-02 0.  1.
         -2    1    1    2  502    0  0.18562637188E+02  0.23463834163E+02  0.70454340748E+03  0.70517837180E+03  0.25500000000E-02 0.  1.
<mgrwt>
<rscale>  0 0.60342811E+02</rscale>
<asrwt>0</asrwt>
<pdfrwt beam="2">  1        1 0.11217884E-03 0.60342811E+02</pdfrwt>
<pdfrwt beam="1">  1       -1 0.19206729E+00 0.60342811E+02</pdfrwt>
<totfact> 0.55020335E+04</totfact>
</mgrwt>
</event>
<event>
 4    1  0.1893769E-002  0.4449246E+02  0.7818608E-02  0.1477535E+00
          1   -1    0    0    0  501  0.00000000000E+00  0.00000000000E+00  0.11601264151E+04  0.11601264151E+04  0.50400000000E-02 0. -1.
         -1   -1    0    0  501    0 -0.00000000000E+00 -0.00000000000E+00 -0.42657199092E+00  0.42660176399E+00  0.50400000000E-02 0. -1.
          2    1    1    2    0  502  0.17264101832E+02  0.14020669443E+02  0.56638863799E+03  0.56682512085E+03  0.25500000000E-02 0.  1.
         -2    1    1    2  502    0 -0.17264101832E+02 -0.14020669443E+02  0.59331120512E+03  0.59372789602E+03  0.25500000000E-02 0.  1.
<mgrwt>
<rscale>  0 0.44492459E+02</rscale>
<asrwt>0</asrwt>
<pdfrwt beam="1">  1        1 0.17847922E+00 0.44492459E+02</pdfrwt>
<pdfrwt beam="2">  1       -1 0.65629401E-04 0.44492459E+02</pdfrwt>
<totfact> 0.80519117E+05</totfact>
</mgrwt>
</event>
<event>
 4    1  0.1893769E-002  0.5910224E+02  0.7818608E-02  0.1401638E+00
         -1   -1    0    0  501    0 -0.00000000000E+00  0.00000000000E+00  0.44507519193E+01  0.44507547729E+01  0.50400000000E-02 0.  1.
          1   -1    0    0    0  501  0.00000000000E+00 -0.00000000000E+00 -0.19620692095E+03  0.19620692102E+03  0.50400000000E-02 0.  1.
          2    1    1    2    0  502 -0.26391736886E+02 -0.79673831082E+01 -0.59745339302E+02  0.65799001088E+02  0.25500000000E-02 0. -1.
         -2    1    1    2  502    0  0.26391736886E+02  0.79673831082E+01 -0.13201082973E+03  0.13485867470E+03  0.25500000000E-02 0. -1.
<mgrwt>
<rscale>  0 0.59102238E+02</rscale>
<asrwt>0</asrwt>
<pdfrwt beam="2">  1        1 0.30185674E-01 0.59102238E+02</pdfrwt>
<pdfrwt beam="1">  1       -1 0.68473144E-03 0.59102238E+02</pdfrwt>
<totfact> 0.36697444E+05</totfact>
</mgrwt>
</event>
<event>
 4    1  0.1893769E-002  0.5533158E+02  0.7818608E-02  0.1418537E+00
         -1   -1    0    0  501    0 -0.00000000000E+00  0.00000000000E+00  0.48841233345E+02  0.48841233605E+02  0.50400000000E-02 0.  1.
          1   -1    0    0    0  501  0.00000000000E+00 -0.00000000000E+00 -0.15671098981E+02  0.15671099792E+02  0.50400000000E-02 0.  1.
          2    1    1    2    0  502 -0.24842193537E+02 -0.79755102899E+01  0.27312345920E+02  0.37771782990E+02  0.25500000000E-02 0. -1.
         -2    1    1    2  502    0  0.24842193537E+02  0.79755102899E+01  0.58577884437E+01  0.26740550407E+02  0.25500000000E-02 0. -1.
<mgrwt>
<rscale>  0 0.55331576E+02</rscale>
<asrwt>0</asrwt>
<pdfrwt beam="2">  1        1 0.24109385E-02 0.55331576E+02</pdfrwt>
<pdfrwt beam="1">  1       -1 0.75140358E-02 0.55331576E+02</pdfrwt>
<totfact> 0.31915765E+05</totfact>
</mgrwt>
</event>
<event>
 4    1  0.1893769E-002  0.6495331E+02  0.7818608E-02  0.1378147E+00
         -1   -1    0    0  501    0 -0.00000000000E+00  0.00000000000E+00  0.78847814568E+02  0.78847814729E+02  0.50400000000E-02 0.  1.
          1   -1    0    0    0  501  0.00000000000E+00 -0.00000000000E+00 -0.13376819311E+02  0.13376820260E+02  0.50400000000E-02 0.  1.
          2    1    1    2    0  502 -0.29622280074E+02  0.73311694666E+01  0.48514964548E+02  0.57314285428E+02  0.25500000000E-02 0. -1.
         -2    1    1    2  502    0  0.29622280074E+02 -0.73311694666E+01  0.16956030709E+02  0.34910349561E+02  0.25500000000E-02 0. -1.
<mgrwt>
<rscale>  0 0.64953307E+02</rscale>
<asrwt>0</asrwt>
<pdfrwt beam="2">  1        1 0.20579723E-02 0.64953307E+02</pdfrwt>
<pdfrwt beam="1">  1       -1 0.12130433E-01 0.64953307E+02</pdfrwt>
<totfact> 0.20093910E+05</totfact>
</mgrwt>
</event>
<event>
 4    1  0.1893769E-002  0.4481793E+02  0.7818608E-02  0.1475481E+00
          1   -1    0    0    0  501  0.00000000000E+00  0.00000000000E+00  0.19317741992E+01  0.19317807739E+01  0.50400000000E-02 0.  1.
         -1   -1    0    0  501    0 -0.00000000000E+00 -0.00000000000E+00 -0.25994804484E+03  0.25994804489E+03  0.50400000000E-02 0.  1.
          2    1    1    2    0  502 -0.20438007222E+02 -0.61639666224E+01 -0.16883418300E+03  0.17017840045E+03  0.25500000000E-02 0.  1.
         -2    1    1    2  502    0  0.20438007222E+02  0.61639666224E+01 -0.89182087649E+02  0.91701425221E+02  0.25500000000E-02 0.  1.
<mgrwt>
<rscale>  0 0.44817934E+02</rscale>
<asrwt>0</asrwt>
<pdfrwt beam="1">  1        1 0.29719675E-03 0.44817934E+02</pdfrwt>
<pdfrwt beam="2">  1       -1 0.39991980E-01 0.44817934E+02</pdfrwt>
<totfact> 0.38706654E+05</totfact>
</mgrwt>
</event>
<event>
 4    1  0.1893769E-002  0.6279138E+02  0.7818608E-02  0.1386477E+00
          1   -1    0    0    0  501  0.00000000000E+00  0.00000000000E+00  0.23390996802E+02  0.23390997345E+02  0.50400000000E-02 0. -1.
         -1   -1    0    0  501    0 -0.00000000000E+00 -0.00000000000E+00 -0.42139684100E+02  0.42139684401E+02  0.50400000000E-02 0. -1.
          2    1    1    2    0  502 -0.30375735409E+02  0.17993873265E+00 -0.17655994170E+02  0.35134766488E+02  0.25500000000E-02 0. -1.
         -2    1    1    2  502    0  0.30375735409E+02 -0.17993873265E+00 -0.10926931277E+01  0.30395915258E+02  0.25500000000E-02 0. -1.
<mgrwt>
<rscale>  0 0.62791377E+02</rscale>
<asrwt>0</asrwt>
<pdfrwt beam="1">  1        1 0.35986150E-02 0.62791377E+02</pdfrwt>
<pdfrwt beam="2">  1       -1 0.64830284E-02 0.62791377E+02</pdfrwt>
<totfact> 0.23722877E+05</totfact>
</mgrwt>
</event>
<event>
 4    1  0.1893769E-002  0.6748092E+02  0.7818608E-02  0.1368875E+00
         -1   -1    0    0  501    0 -0.00000000000E+00  0.00000000000E+00  0.25642755874E+02  0.25642756369E+02  0.50400000000E-02 0. -1.
          1   -1    0    0    0  501  0.00000000000E+00 -0.00000000000E+00 -0.44395335446E+02  0.44395335732E+02  0.50400000000E-02 0. -1.
          2    1    1    2    0  502  0.30476958019E+02  0.13361648053E+02 -0.15158784815E+02  0.36567299221E+02  0.25500000000E-02 0.  1.
         -2    1    1    2  502    0 -0.30476958019E+02 -0.13361648053E+02 -0.35937947573E+01  0.33470792880E+02  0.25500000000E-02 0.  1.
<mgrwt>
<rscale>  0 0.67480924E+02</rscale>
<asrwt>0</asrwt>
<pdfrwt beam="2">  1        1 0.68300517E-02 0.67480924E+02</pdfrwt>
<pdfrwt beam="1">  1       -1 0.39450394E-02 0.67480924E+02</pdfrwt>
<totfact> 0.21020589E+05</totfact>
</mgrwt>
</event>
<event>
 4    1  0.1893769E-002  0.4304208E+02  0.7818608E-02  0.1486948E+00
         -1   -1    0    0  501    0 -0.00000000000E+00  0.00000000000E+00  0.75293755048E+01  0.75293771916E+01  0.50400000000E-02 0. -1.
          1   -1    0    0    0  501  0.00000000000E+00 -0.00000000000E+00 -0.61513095849E+02  0.61513096055E+02  0.50400000000E-02 0. -1.
          2    1    1    2    0  502  0.21327130108E+02  0.20355616453E+01 -0.30265601943E+02  0.37080947363E+02  0.25500000000E-02 0.  1.
         -2    1    1    2  502    0 -0.21327130108E+02 -0.20355616453E+01 -0.23718118401E+02  0.31961525884E+02  0.25500000000E-02 0.  1.
<mgrwt>
<rscale>  0 0.43042085E+02</rscale>
<asrwt>0</asrwt>
<pdfrwt beam="2">  1        1 0.94635530E-02 0.43042085E+02</pdfrwt>
<pdfrwt beam="1">  1       -1 0.11583656E-02 0.43042085E+02</pdfrwt>
<totfact> 0.69471785E+05</totfact>
</mgrwt>
</event>
<event>
 4    1  0.1893769E-002  0.1760156E+03  0.7818608E-02  0.1171716E+00
          1   -1    0    0    0  501  0.00000000000E+00  0.00000000000E+00  0.59594358174E+03  0.59594358177E+03  0.50400000000E-02 0.  1.
         -1   -1    0    0  501    0 -0.00000000000E+00 -0.00000000000E+00 -0.12996822653E+02  0.12996823630E+02  0.50400000000E-02 0.  1.
          2    1    1    2    0  502  0.47201128334E+01  0.60164550730E+02  0.69862361351E+02  0.92319023878E+02  0.25500000000E-02 0. -1.
         -2    1    1    2  502    0 -0.47201128334E+01 -0.60164550730E+02  0.51308439774E+03  0.51662138152E+03  0.25500000000E-02 0. -1.
<mgrwt>
<rscale>  0 0.17601561E+03</rscale>
<asrwt>0</asrwt>
<pdfrwt beam="1">  1        1 0.91683616E-01 0.17601561E+03</pdfrwt>
<pdfrwt beam="2">  1       -1 0.19995115E-02 0.17601561E+03</pdfrwt>
<totfact> 0.23450227E+04</totfact>
</mgrwt>
</event>
<event>
 4    1  0.1893769E-002  0.4655459E+02  0.7818608E-02  0.1464864E+00
         -1   -1    0    0  501    0 -0.00000000000E+00  0.00000000000E+00  0.27362168158E+03  0.27362168162E+03  0.50400000000E-02 0. -1.
          1   -1    0    0    0  501  0.00000000000E+00 -0.00000000000E+00 -0.19802217088E+01  0.19802281226E+01  0.50400000000E-02 0. -1.
          2    1    1    2    0  502  0.14954964755E+02 -0.17204054249E+02  0.10792639614E+03  0.11030746776E+03  0.25500000000E-02 0.  1.
         -2    1    1    2  502    0 -0.14954964755E+02  0.17204054249E+02  0.16371506372E+03  0.16529444198E+03  0.25500000000E-02 0.  1.
<mgrwt>
<rscale>  0 0.46554591E+02</rscale>
<asrwt>0</asrwt>
<pdfrwt beam="2">  1        1 0.30464992E-03 0.46554591E+02</pdfrwt>
<pdfrwt beam="1">  1       -1 0.42095654E-01 0.46554591E+02</pdfrwt>
<totfact> 0.34627602E+05</totfact>
</mgrwt>
</event>
<event>
 4    1  0.1893769E-002  0.4158567E+02  0.7818608E-02  0.1496857E+00
         -1   -1    0    0  501    0 -0.00000000000E+00  0.00000000000E+00  0.76765339070E+02  0.76765339236E+02  0.50400000000E-02 0. -1.
          1   -1    0    0    0  501  0.00000000000E+00 -0.00000000000E+00 -0.56319947245E+01  0.56319969797E+01  0.50400000000E-02 0. -1.
          2    1    1    2    0  502  0.20326678393E+02  0.43638629514E+01  0.34866360135E+02  0.40594091071E+02  0.25500000000E-02 0.  1.
         -2    1    1    2  502    0 -0.20326678393E+02 -0.43638629514E+01  0.36266984210E+02  0.41803245144E+02  0.25500000000E-02 0.  1.
<mgrwt>
<rscale>  0 0.41585675E+02</rscale>
<asrwt>0</asrwt>
<pdfrwt beam="2">  1        1 0.86646096E-03 0.41585675E+02</pdfrwt>
<pdfrwt beam="1">  1       -1 0.11810052E-01 0.41585675E+02</pdfrwt>
<totfact> 0.60833949E+05</totfact>
</mgrwt>
</event>
<event>
 4    1  0.1893769E-002  0.4654904E+02  0.7818608E-02  0.1464897E+00
         -1   -1    0    0  501    0 -0.00000000000E+00  0.00000000000E+00  0.17281422370E+01  0.17281495864E+01  0.50400000000E-02 0.  1.
          1   -1    0    0    0  501  0.00000000000E+00 -0.00000000000E+00 -0.31345925657E+03  0.31345925661E+03  0.50400000000E-02 0.  1.
          2    1    1    2    0  502 -0.75716461507E+01  0.22004611628E+02 -0.15306900454E+03  0.15482781700E+03  0.25500000000E-02 0.  1.
         -2    1    1    2  502    0  0.75716461507E+01 -0.22004611628E+02 -0.15866210980E+03  0.16035958920E+03  0.25500000000E-02 0.  1.
<mgrwt>
<rscale>  0 0.46549043E+02</rscale>
<asrwt>0</asrwt>
<pdfrwt beam="2">  1        1 0.48224456E-01 0.46549043E+02</pdfrwt>
<pdfrwt beam="1">  1       -1 0.26586885E-03 0.46549043E+02</pdfrwt>
<totfact> 0.72631832E+05</totfact>
</mgrwt>
</event>
<event>
 4    1  0.1893769E-002  0.4099152E+02  0.7818608E-02  0.1501039E+00
          1   -1    0    0    0  501  0.00000000000E+00  0.00000000000E+00  0.12697776090E+04  0.12697776090E+04  0.50400000000E-02 0. -1.
         -1   -1    0    0  501    0 -0.00000000000E+00 -0.00000000000E+00 -0.33080733884E+00  0.33084572996E+00  0.50400000000E-02 0. -1.
          2    1    1    2    0  502  0.38634482177E+01 -0.20056857784E+02  0.58221051111E+03  0.58256869383E+03  0.25500000000E-02 0. -1.
         -2    1    1    2  502    0 -0.38634482177E+01  0.20056857784E+02  0.68723629056E+03  0.68753976092E+03  0.25500000000E-02 0. -1.
<mgrwt>
<rscale>  0 0.40991518E+02</rscale>
<asrwt>0</asrwt>
<pdfrwt beam="1">  1        1 0.19534884E+00 0.40991518E+02</pdfrwt>
<pdfrwt beam="2">  1       -1 0.50896799E-04 0.40991518E+02</pdfrwt>
<totfact> 0.94287036E+05</totfact>
</mgrwt>
</event>
<event>
 4    1  0.1893769E-002  0.4478774E+02  0.7818608E-02  0.1475671E+00
          1   -1    0    0    0  501  0.00000000000E+00  0.00000000000E+00  0.59194480970E+03  0.59194480972E+03  0.50400000000E-02 0.  1.
         -1   -1    0    0  501    0 -0.00000000000E+00 -0.00000000000E+00 -0.84717527310E+00  0.84719026490E+00  0.50400000000E-02 0.  1.
          2    1    1    2    0  502 -0.19985088531E+02  0.94016955322E+01  0.24657749554E+03  0.24756465208E+03  0.25500000000E-02 0.  1.
         -2    1    1    2  502    0  0.19985088531E+02 -0.94016955322E+01  0.34452013888E+03  0.34522734791E+03  0.25500000000E-02 0.  1.
<mgrwt>
<rscale>  0 0.44787742E+02</rscale>
<asrwt>0</asrwt>
<pdfrwt beam="1">  1        1 0.91068409E-01 0.44787742E+02</pdfrwt>
<pdfrwt beam="2">  1       -1 0.13033585E-03 0.44787742E+02</pdfrwt>
<totfact> 0.86693630E+05</totfact>
</mgrwt>
</event>
<event>
 4    1  0.1893769E-002  0.7161908E+02  0.7818608E-02  0.1354672E+00
         -1   -1    0    0  501    0 -0.00000000000E+00  0.00000000000E+00  0.76942228907E+00  0.76943879582E+00  0.50400000000E-02 0. -1.
          1   -1    0    0    0  501  0.00000000000E+00 -0.00000000000E+00 -0.16665873468E+04  0.16665873468E+04  0.50400000000E-02 0. -1.
          2    1    1    2    0  502  0.31876749387E+02  0.65258106992E+01 -0.48477590559E+03  0.48586664014E+03  0.25500000000E-02 0. -1.
         -2    1    1    2  502    0 -0.31876749387E+02 -0.65258106992E+01 -0.11810420189E+04  0.11814901454E+04  0.25500000000E-02 0. -1.
<mgrwt>
<rscale>  0 0.71619082E+02</rscale>
<asrwt>0</asrwt>
<pdfrwt beam="2">  1        1 0.25639517E+00 0.71619082E+02</pdfrwt>
<pdfrwt beam="1">  1       -1 0.11837526E-03 0.71619082E+02</pdfrwt>
<totfact> 0.18879058E+05</totfact>
</mgrwt>
</event>
<event>
 4    1  0.1893769E-002  0.1134407E+03  0.7818608E-02  0.1254328E+00
         -1   -1    0    0  501    0 -0.00000000000E+00  0.00000000000E+00  0.48964261137E+01  0.48964287076E+01  0.50400000000E-02 0. -1.
          1   -1    0    0    0  501  0.00000000000E+00 -0.00000000000E+00 -0.65705056149E+03  0.65705056151E+03  0.50400000000E-02 0. -1.
          2    1    1    2    0  502  0.35305585052E+02  0.25017426089E+02 -0.11208869019E+03  0.12015086524E+03  0.25500000000E-02 0.  1.
         -2    1    1    2  502    0 -0.35305585052E+02 -0.25017426089E+02 -0.54006544519E+03  0.54179612497E+03  0.25500000000E-02 0.  1.
<mgrwt>
<rscale>  0 0.11344074E+03</rscale>
<asrwt>0</asrwt>
<pdfrwt beam="2">  1        1 0.10108463E+00 0.11344074E+03</pdfrwt>
<pdfrwt beam="1">  1       -1 0.75329705E-03 0.11344074E+03</pdfrwt>
<totfact> 0.79243677E+04</totfact>
</mgrwt>
</event>
<event>
 4    1  0.1893769E-002  0.4572667E+02  0.7818608E-02  0.1469856E+00
          1   -1    0    0    0  501  0.00000000000E+00  0.00000000000E+00  0.91250593920E+01  0.91250607839E+01  0.50400000000E-02 0. -1.
         -1   -1    0    0  501    0 -0.00000000000E+00 -0.00000000000E+00 -0.57285333467E+02  0.57285333689E+02  0.50400000000E-02 0. -1.
          2    1    1    2    0  502  0.12581954841E+02 -0.18561750127E+02 -0.17603320306E+02  0.28508262797E+02  0.25500000000E-02 0. -1.
         -2    1    1    2  502    0 -0.12581954841E+02  0.18561750127E+02 -0.30556953769E+02  0.37902131675E+02  0.25500000000E-02 0. -1.
<mgrwt>
<rscale>  0 0.45726672E+02</rscale>
<asrwt>0</asrwt>
<pdfrwt beam="1">  1        1 0.14038554E-02 0.45726672E+02</pdfrwt>
<pdfrwt beam="2">  1       -1 0.88131281E-02 0.45726672E+02</pdfrwt>
<totfact> 0.50092306E+05</totfact>
</mgrwt>
</event>
<event>
 4    1  0.1893769E-002  0.4379246E+02  0.7818608E-02  0.1482024E+00
         -1   -1    0    0  501    0 -0.00000000000E+00  0.00000000000E+00  0.23131511087E+01  0.23131565994E+01  0.50400000000E-02 0. -1.
          1   -1    0    0    0  501  0.00000000000E+00 -0.00000000000E+00 -0.20726889801E+03  0.20726889807E+03  0.50400000000E-02 0. -1.
          2    1    1    2    0  502  0.13568754483E+02 -0.16957384890E+02 -0.11582747958E+03  0.11784595467E+03  0.25500000000E-02 0. -1.
         -2    1    1    2  502    0 -0.13568754483E+02  0.16957384890E+02 -0.89128267326E+02  0.91736100002E+02  0.25500000000E-02 0. -1.
<mgrwt>
<rscale>  0 0.43792459E+02</rscale>
<asrwt>0</asrwt>
<pdfrwt beam="2">  1        1 0.31887508E-01 0.43792459E+02</pdfrwt>
<pdfrwt beam="1">  1       -1 0.35586999E-03 0.43792459E+02</pdfrwt>
<totfact> 0.78598489E+05</totfact>
</mgrwt>
</event>
<event>
 4    1  0.1893769E-002  0.4313955E+02  0.7818608E-02  0.1486302E+00
          1   -1    0    0    0  501  0.00000000000E+00  0.00000000000E+00  0.11364108288E+04  0.11364108288E+04  0.50400000000E-02 0. -1.
         -1   -1    0    0  501    0 -0.00000000000E+00 -0.00000000000E+00 -0.40939209009E+00  0.40942311247E+00  0.50400000000E-02 0. -1.
          2    1    1    2    0  502 -0.11031001177E+02 -0.17969836667E+02  0.44822959742E+03  0.44872527233E+03  0.25500000000E-02 0.  1.
         -2    1    1    2  502    0  0.11031001177E+02  0.17969836667E+02  0.68777183928E+03  0.68809497958E+03  0.25500000000E-02 0.  1.
<mgrwt>
<rscale>  0 0.43139552E+02</rscale>
<asrwt>0</asrwt>
<pdfrwt beam="1">  1        1 0.17483046E+00 0.43139552E+02</pdfrwt>
<pdfrwt beam="2">  1       -1 0.62986499E-04 0.43139552E+02</pdfrwt>
<totfact> 0.87563683E+05</totfact>
</mgrwt>
</event>
<event>
 4    1  0.1893769E-002  0.5675911E+02  0.7818608E-02  0.1411958E+00
         -1   -1    0    0  501    0 -0.00000000000E+00  0.00000000000E+00  0.47936286443E+03  0.47936286446E+03  0.50400000000E-02 0.  1.
          1   -1    0    0    0  501  0.00000000000E+00 -0.00000000000E+00 -0.16801413641E+01  0.16801489234E+01  0.50400000000E-02 0.  1.
          2    1    1    2    0  502  0.97878602974E+01 -0.26555663059E+02  0.22107633923E+03  0.22288058063E+03  0.25500000000E-02 0.  1.
         -2    1    1    2  502    0 -0.97878602974E+01  0.26555663059E+02  0.25660638384E+03  0.25816243275E+03  0.25500000000E-02 0.  1.
<mgrwt>
<rscale>  0 0.56759112E+02</rscale>
<asrwt>0</asrwt>
<pdfrwt beam="2">  1        1 0.25848392E-03 0.56759112E+02</pdfrwt>
<pdfrwt beam="1">  1       -1 0.73748121E-01 0.56759112E+02</pdfrwt>
<totfact> 0.16309908E+05</totfact>
</mgrwt>
</event>
<event>
 4    1  0.1893769E-002  0.6507894E+02  0.7818608E-02  0.1377675E+00
         -1   -1    0    0  501    0 -0.00000000000E+00  0.00000000000E+00  0.16283651315E+01  0.16283729312E+01  0.50400000000E-02 0.  1.
          1   -1    0    0    0  501  0.00000000000E+00 -0.00000000000E+00 -0.65023161590E+03  0.65023161592E+03  0.50400000000E-02 0.  1.
          2    1    1    2    0  502  0.21304291988E+02  0.23204638016E+02 -0.40597652441E+03  0.40719683995E+03  0.25500000000E-02 0.  1.
         -2    1    1    2  502    0 -0.21304291988E+02 -0.23204638016E+02 -0.24262672635E+03  0.24466314890E+03  0.25500000000E-02 0.  1.
<mgrwt>
<rscale>  0 0.65078938E+02</rscale>
<asrwt>0</asrwt>
<pdfrwt beam="2">  1        1 0.10003543E+00 0.65078938E+02</pdfrwt>
<pdfrwt beam="1">  1       -1 0.25051883E-03 0.65078938E+02</pdfrwt>
<totfact> 0.34156881E+05</totfact>
</mgrwt>
</event>
<event>
 4    1  0.1893769E-002  0.4881888E+02  0.7818608E-02  0.1451818E+00
         -1   -1    0    0  501    0 -0.00000000000E+00  0.00000000000E+00  0.10873895973E+01  0.10874012773E+01  0.50400000000E-02 0.  1.
          1   -1    0    0    0  501  0.00000000000E+00 -0.00000000000E+00 -0.54793390488E+03  0.54793390490E+03  0.50400000000E-02 0.  1.
          2    1    1    2    0  502 -0.19367690349E+02  0.59165857569E+01 -0.12016778785E+03  0.12186226102E+03  0.25500000000E-02 0.  1.
         -2    1    1    2  502    0  0.19367690349E+02 -0.59165857569E+01 -0.42667872743E+03  0.42715904516E+03  0.25500000000E-02 0.  1.
<mgrwt>
<rscale>  0 0.48818883E+02</rscale>
<asrwt>0</asrwt>
<pdfrwt beam="2">  1        1 0.84297304E-01 0.48818883E+02</pdfrwt>
<pdfrwt beam="1">  1       -1 0.16729205E-03 0.48818883E+02</pdfrwt>
<totfact> 0.69746042E+05</totfact>
</mgrwt>
</event>
<event>
 4    1  0.1893769E-002  0.5921303E+02  0.7818608E-02  0.1401164E+00
         -1   -1    0    0  501    0 -0.00000000000E+00  0.00000000000E+00  0.27854516173E+02  0.27854516628E+02  0.50400000000E-02 0.  1.
          1   -1    0    0    0  501  0.00000000000E+00 -0.00000000000E+00 -0.31468714245E+02  0.31468714648E+02  0.50400000000E-02 0.  1.
          2    1    1    2    0  502  0.14186504869E+02  0.24522520881E+02  0.68074424762E+01  0.29136784832E+02  0.25500000000E-02 0.  1.
         -2    1    1    2  502    0 -0.14186504869E+02 -0.24522520881E+02 -0.10421640548E+02  0.30186446445E+02  0.25500000000E-02 0.  1.
<mgrwt>
<rscale>  0 0.59213034E+02</rscale>
<asrwt>0</asrwt>
<pdfrwt beam="2">  1        1 0.48413407E-02 0.59213034E+02</pdfrwt>
<pdfrwt beam="1">  1       -1 0.42853102E-02 0.59213034E+02</pdfrwt>
<totfact> 0.28673880E+05</totfact>
</mgrwt>
</event>
<event>
 4    1  0.1893769E-002  0.4245949E+02  0.7818608E-02  0.1490855E+00
         -1   -1    0    0  501    0 -0.00000000000E+00  0.00000000000E+00  0.26397872781E+03  0.26397872786E+03  0.50400000000E-02 0.  1.
          1   -1    0    0    0  501  0.00000000000E+00 -0.00000000000E+00 -0.17073382823E+01  0.17073457212E+01  0.50400000000E-02 0.  1.
          2    1    1    2    0  502  0.26866821343E+01  0.20279722702E+02  0.95618908850E+02  0.97782724190E+02  0.25500000000E-02 0.  1.
         -2    1    1    2  502    0 -0.26866821343E+01 -0.20279722702E+02  0.16665248068E+03  0.16790334939E+03  0.25500000000E-02 0.  1.
<mgrwt>
<rscale>  0 0.42459486E+02</rscale>
<asrwt>0</asrwt>
<pdfrwt beam="2">  1        1 0.26266810E-03 0.42459486E+02</pdfrwt>
<pdfrwt beam="1">  1       -1 0.40612097E-01 0.42459486E+02</pdfrwt>
<totfact> 0.43931745E+05</totfact>
</mgrwt>
</event>
<event>
 4    1  0.1893769E-002  0.8273819E+02  0.7818608E-02  0.1321456E+00
         -1   -1    0    0  501    0 -0.00000000000E+00  0.00000000000E+00  0.93650275880E+02  0.93650276016E+02  0.50400000000E-02 0. -1.
          1   -1    0    0    0  501  0.00000000000E+00 -0.00000000000E+00 -0.18274393276E+02  0.18274393971E+02  0.50400000000E-02 0. -1.
          2    1    1    2    0  502 -0.39694070481E+02 -0.89260681834E+01  0.27555069716E+02  0.49138333286E+02  0.25500000000E-02 0.  1.
         -2    1    1    2  502    0  0.39694070481E+02  0.89260681834E+01  0.47820812889E+02  0.62786336701E+02  0.25500000000E-02 0.  1.
<mgrwt>
<rscale>  0 0.82738190E+02</rscale>
<asrwt>0</asrwt>
<pdfrwt beam="2">  1        1 0.28114452E-02 0.82738190E+02</pdfrwt>
<pdfrwt beam="1">  1       -1 0.14407735E-01 0.82738190E+02</pdfrwt>
<totfact> 0.10565139E+05</totfact>
</mgrwt>
</event>
<event>
 4    1  0.1893769E-002  0.4295598E+02  0.7818608E-02  0.1487521E+00
          1   -1    0    0    0  501  0.00000000000E+00  0.00000000000E+00  0.15681582772E+01  0.15681663763E+01  0.50400000000E-02 0. -1.
         -1   -1    0    0  501    0 -0.00000000000E+00 -0.00000000000E+00 -0.29416850197E+03  0.29416850201E+03  0.50400000000E-02 0. -1.
          2    1    1    2    0  502 -0.15880630168E+02  0.14248136413E+02 -0.12929612471E+03  0.13104461712E+03  0.25500000000E-02 0.  1.
         -2    1    1    2  502    0  0.15880630168E+02 -0.14248136413E+02 -0.16330421898E+03  0.16469205127E+03  0.25500000000E-02 0.  1.
<mgrwt>
<rscale>  0 0.42955976E+02</rscale>
<asrwt>0</asrwt>
<pdfrwt beam="1">  1        1 0.24125598E-03 0.42955976E+02</pdfrwt>
<pdfrwt beam="2">  1       -1 0.45256649E-01 0.42955976E+02</pdfrwt>
<totfact> 0.41046601E+05</totfact>
</mgrwt>
</event>
<event>
 4    1  0.1893769E-002  0.4608515E+02  0.7818608E-02  0.1467679E+00
         -1   -1    0    0  501    0 -0.00000000000E+00  0.00000000000E+00  0.70841196909E+03  0.70841196911E+03  0.50400000000E-02 0.  1.
          1   -1    0    0    0  501  0.00000000000E+00 -0.00000000000E+00 -0.74949925559E+00  0.74951620112E+00  0.50400000000E-02 0.  1.
          2    1    1    2    0  502  0.20370701472E+02  0.73890072794E+01  0.47440669633E+03  0.47490133337E+03  0.25500000000E-02 0. -1.
         -2    1    1    2  502    0 -0.20370701472E+02 -0.73890072794E+01  0.23325577351E+03  0.23426015194E+03  0.25500000000E-02 0. -1.
<mgrwt>
<rscale>  0 0.46085150E+02</rscale>
<asrwt>0</asrwt>
<pdfrwt beam="2">  1        1 0.11530867E-03 0.46085150E+02</pdfrwt>
<pdfrwt beam="1">  1       -1 0.10898666E+00 0.46085150E+02</pdfrwt>
<totfact> 0.20692022E+05</totfact>
</mgrwt>
</event>
<event>
 4    1  0.1893769E-002  0.5354356E+02  0.7818608E-02  0.1427115E+00
          1   -1    0    0    0  501  0.00000000000E+00  0.00000000000E+00  0.85416214808E+03  0.85416214809E+03  0.50400000000E-02 0. -1.
         -1   -1    0    0  501    0 -0.00000000000E+00 -0.00000000000E+00 -0.83909322672E+00  0.83910836293E+00  0.50400000000E-02 0. -1.
          2    1    1    2    0  502  0.13880414554E+01  0.22081602770E+02  0.18596612052E+03  0.18727765971E+03  0.25500000000E-02 0. -1.
         -2    1    1    2  502    0 -0.13880414554E+01 -0.22081602770E+02  0.66735693433E+03  0.66772359675E+03  0.25500000000E-02 0. -1.
<mgrwt>
<rscale>  0 0.53543558E+02</rscale>
<asrwt>0</asrwt>
<pdfrwt beam="1">  1        1 0.13140940E+00 0.53543558E+02</pdfrwt>
<pdfrwt beam="2">  1       -1 0.12909259E-03 0.53543558E+02</pdfrwt>
<totfact> 0.55183855E+05</totfact>
</mgrwt>
</event>
<event>
 4    1  0.1893769E-002  0.5940949E+02  0.7818608E-02  0.1400327E+00
          1   -1    0    0    0  501  0.00000000000E+00  0.00000000000E+00  0.19940256233E+03  0.19940256239E+03  0.50400000000E-02 0. -1.
         -1   -1    0    0  501    0 -0.00000000000E+00 -0.00000000000E+00 -0.44250768447E+01  0.44250797148E+01  0.50400000000E-02 0. -1.
          2    1    1    2    0  502 -0.12321630592E+02  0.23551339231E+02  0.14298965959E+03  0.14543909694E+03  0.25500000000E-02 0. -1.
         -2    1    1    2  502    0  0.12321630592E+02 -0.23551339231E+02  0.51987825892E+02  0.58388545174E+02  0.25500000000E-02 0. -1.
<mgrwt>
<rscale>  0 0.59409493E+02</rscale>
<asrwt>0</asrwt>
<pdfrwt beam="1">  1        1 0.30677318E-01 0.59409493E+02</pdfrwt>
<pdfrwt beam="2">  1       -1 0.68078128E-03 0.59409493E+02</pdfrwt>
<totfact> 0.36318563E+05</totfact>
</mgrwt>
</event>
<event>
 4    1  0.1893769E-002  0.1357105E+03  0.7818608E-02  0.1219220E+00
          1   -1    0    0    0  501  0.00000000000E+00  0.00000000000E+00  0.19212127981E+02  0.19212128642E+02  0.50400000000E-02 0.  1.
         -1   -1    0    0  501    0 -0.00000000000E+00 -0.00000000000E+00 -0.23965758068E+03  0.23965758073E+03  0.50400000000E-02 0.  1.
          2    1    1    2    0  502  0.50198039075E+02 -0.20057192496E+02 -0.31986754055E+02  0.62811515977E+02  0.25500000000E-02 0. -1.
         -2    1    1    2  502    0 -0.50198039075E+02  0.20057192496E+02 -0.18845869864E+03  0.19605819340E+03  0.25500000000E-02 0. -1.
<mgrwt>
<rscale>  0 0.13571046E+03</rscale>
<asrwt>0</asrwt>
<pdfrwt beam="1">  1        1 0.29557122E-02 0.13571046E+03</pdfrwt>
<pdfrwt beam="2">  1       -1 0.36870395E-01 0.13571046E+03</pdfrwt>
<totfact> 0.22992830E+04</totfact>
</mgrwt>
</event>
<event>
 4    1  0.1893769E-002  0.4208145E+02  0.7818608E-02  0.1493430E+00
          1   -1    0    0    0  501  0.00000000000E+00  0.00000000000E+00  0.50495567503E+03  0.50495567505E+03  0.50400000000E-02 0.  1.
         -1   -1    0    0  501    0 -0.00000000000E+00 -0.00000000000E+00 -0.87672732710E+00  0.87674181358E+00  0.50400000000E-02 0.  1.
          2    1    1    2    0  502  0.71930052118E+00 -0.20692185371E+02  0.20701832855E+03  0.20805112903E+03  0.25500000000E-02 0. -1.
         -2    1    1    2  502    0 -0.71930052118E+00  0.20692185371E+02  0.29706061915E+03  0.29778128784E+03  0.25500000000E-02 0. -1.
<mgrwt>
<rscale>  0 0.42081450E+02</rscale>
<asrwt>0</asrwt>
<pdfrwt beam="1">  1        1 0.77685490E-01 0.42081450E+02</pdfrwt>
<pdfrwt beam="2">  1       -1 0.13488224E-03 0.42081450E+02</pdfrwt>
<totfact> 0.99638349E+05</totfact>
</mgrwt>
</event>
<event>
 4    1  0.1893769E-002  0.8852288E+02  0.7818608E-02  0.1306469E+00
         -1   -1    0    0  501    0 -0.00000000000E+00  0.00000000000E+00  0.20335686616E+02  0.20335687240E+02  0.50400000000E-02 0.  1.
          1   -1    0    0    0  501  0.00000000000E+00 -0.00000000000E+00 -0.96336799257E+02  0.96336799389E+02  0.50400000000E-02 0.  1.
          2    1    1    2    0  502  0.65307395228E+01 -0.20977030236E+02  0.12641726494E+02  0.25347576048E+02  0.25500000000E-02 0. -1.
         -2    1    1    2  502    0 -0.65307395228E+01  0.20977030236E+02 -0.88642839136E+02  0.91324910582E+02  0.25500000000E-02 0. -1.
<mgrwt>
<rscale>  0 0.88522878E+02</rscale>
<asrwt>0</asrwt>
<pdfrwt beam="2">  1        1 0.14821046E-01 0.88522878E+02</pdfrwt>
<pdfrwt beam="1">  1       -1 0.31285673E-02 0.88522878E+02</pdfrwt>
<totfact> 0.11249880E+05</totfact>
</mgrwt>
</event>
<event>
 4    1  0.1893769E-002  0.6697786E+02  0.7818608E-02  0.1370682E+00
          1   -1    0    0    0  501  0.00000000000E+00  0.00000000000E+00  0.15913358616E+02  0.15913359414E+02  0.50400000000E-02 0.  1.
         -1   -1    0    0  501    0 -0.00000000000E+00 -0.00000000000E+00 -0.70475912034E+02  0.70475912214E+02  0.50400000000E-02 0.  1.
          2    1    1    2    0  502  0.21943459174E+01  0.31152356741E+02 -0.42878162098E+02  0.53045464235E+02  0.25500000000E-02 0.  1.
         -2    1    1    2  502    0 -0.21943459174E+01 -0.31152356741E+02 -0.11684391320E+02  0.33343807394E+02  0.25500000000E-02 0.  1.
<mgrwt>
<rscale>  0 0.66977862E+02</rscale>
<asrwt>0</asrwt>
<pdfrwt beam="1">  1        1 0.24482091E-02 0.66977862E+02</pdfrwt>
<pdfrwt beam="2">  1       -1 0.10842448E-01 0.66977862E+02</pdfrwt>
<totfact> 0.18904472E+05</totfact>
</mgrwt>
</event>
<event>
 4    1  0.1893769E-002  0.4272324E+02  0.7818608E-02  0.1489077E+00
         -1   -1    0    0  501    0 -0.00000000000E+00  0.00000000000E+00  0.19400570716E+01  0.19400636182E+01  0.50400000000E-02 0. -1.
          1   -1    0    0    0  501  0.00000000000E+00 -0.00000000000E+00 -0.23520851443E+03  0.23520851448E+03  0.50400000000E-02 0. -1.
          2    1    1    2    0  502 -0.18669901254E+02 -0.10241283013E+02 -0.12603728704E+03  0.12782349871E+03  0.25500000000E-02 0. -1.
         -2    1    1    2  502    0  0.18669901254E+02  0.10241283013E+02 -0.10723117031E+03  0.10932507939E+03  0.25500000000E-02 0. -1.
<mgrwt>
<rscale>  0 0.42723236E+02</rscale>
<asrwt>0</asrwt>
<pdfrwt beam="2">  1        1 0.36185903E-01 0.42723236E+02</pdfrwt>
<pdfrwt beam="1">  1       -1 0.29847101E-03 0.42723236E+02</pdfrwt>
<totfact> 0.85351867E+05</totfact>
</mgrwt>
</event>
<event>
 4    1  0.1893769E-002  0.6160303E+02  0.7818608E-02  0.1391225E+00
         -1   -1    0    0  501    0 -0.00000000000E+00  0.00000000000E+00  0.64517071209E+00  0.64519039774E+00  0.50400000000E-02 0. -1.
          1   -1    0    0    0  501  0.00000000000E+00 -0.00000000000E+00 -0.14704925276E+04  0.14704925276E+04  0.50400000000E-02 0. -1.
          2    1    1    2    0  502 -0.30758143657E+02  0.47250818816E+00 -0.77227674006E+03  0.77288915758E+03  0.25500000000E-02 0. -1.
         -2    1    1    2  502    0  0.30758143657E+02 -0.47250818816E+00 -0.69757061687E+03  0.69824856046E+03  0.25500000000E-02 0. -1.
<mgrwt>
<rscale>  0 0.61603026E+02</rscale>
<asrwt>0</asrwt>
<pdfrwt beam="2">  1        1 0.22622694E+00 0.61603026E+02</pdfrwt>
<pdfrwt beam="1">  1       -1 0.99259725E-04 0.61603026E+02</pdfrwt>
<totfact> 0.31088748E+05</totfact>
</mgrwt>
</event>
<event>
 4    1  0.1893769E-002  0.5461997E+02  0.7818608E-02  0.1421905E+00
         -1   -1    0    0  501    0 -0.00000000000E+00  0.00000000000E+00  0.15616565221E+01  0.15616646550E+01  0.50400000000E-02 0.  1.
          1   -1    0    0    0  501  0.00000000000E+00 -0.00000000000E+00 -0.47759110920E+03  0.47759110923E+03  0.50400000000E-02 0.  1.
          2    1    1    2    0  502  0.17123086689E+02 -0.18538585190E+02 -0.32958364840E+03  0.33054842389E+03  0.25500000000E-02 0.  1.
         -2    1    1    2  502    0 -0.17123086689E+02  0.18538585190E+02 -0.14644580428E+03  0.14860434999E+03  0.25500000000E-02 0.  1.
<mgrwt>
<rscale>  0 0.54619968E+02</rscale>
<asrwt>0</asrwt>
<pdfrwt beam="2">  1        1 0.73475439E-01 0.54619968E+02</pdfrwt>
<pdfrwt beam="1">  1       -1 0.24025586E-03 0.54619968E+02</pdfrwt>
<totfact> 0.51985486E+05</totfact>
</mgrwt>
</event>
<event>
 4    1  0.1893769E-002  0.5225791E+02  0.7818608E-02  0.1433530E+00
         -1   -1    0    0  501    0 -0.00000000000E+00  0.00000000000E+00  0.43313210427E+02  0.43313210720E+02  0.50400000000E-02 0. -1.
          1   -1    0    0    0  501  0.00000000000E+00 -0.00000000000E+00 -0.15762446214E+02  0.15762447020E+02  0.50400000000E-02 0. -1.
          2    1    1    2    0  502  0.18516704263E+02 -0.18097921155E+02  0.17743146314E+02  0.31388251537E+02  0.25500000000E-02 0. -1.
         -2    1    1    2  502    0 -0.18516704263E+02  0.18097921155E+02  0.98076178994E+01  0.27687406204E+02  0.25500000000E-02 0. -1.
<mgrwt>
<rscale>  0 0.52257906E+02</rscale>
<asrwt>0</asrwt>
<pdfrwt beam="2">  1        1 0.24249918E-02 0.52257906E+02</pdfrwt>
<pdfrwt beam="1">  1       -1 0.66635708E-02 0.52257906E+02</pdfrwt>
<totfact> 0.37239328E+05</totfact>
</mgrwt>
</event>
<event>
 4    1  0.1893769E-002  0.1618566E+03  0.7818608E-02  0.1186616E+00
         -1   -1    0    0  501    0 -0.00000000000E+00  0.00000000000E+00  0.24589755314E+02  0.24589755831E+02  0.50400000000E-02 0. -1.
          1   -1    0    0    0  501  0.00000000000E+00 -0.00000000000E+00 -0.26634623563E+03  0.26634623567E+03  0.50400000000E-02 0. -1.
          2    1    1    2    0  502 -0.33692091876E+02 -0.26612449085E+02 -0.24418686645E+03  0.24793266274E+03  0.25500000000E-02 0.  1.
         -2    1    1    2  502    0  0.33692091876E+02  0.26612449085E+02  0.24303861391E+01  0.43003328762E+02  0.25500000000E-02 0.  1.
<mgrwt>
<rscale>  0 0.16185659E+03</rscale>
<asrwt>0</asrwt>
<pdfrwt beam="2">  1        1 0.40976342E-01 0.16185659E+03</pdfrwt>
<pdfrwt beam="1">  1       -1 0.37830395E-02 0.16185659E+03</pdfrwt>
<totfact> 0.25744807E+04</totfact>
</mgrwt>
</event>
<event>
 4    1  0.1893769E-002  0.6095571E+02  0.7818608E-02  0.1393864E+00
         -1   -1    0    0  501    0 -0.00000000000E+00  0.00000000000E+00  0.39558899706E+01  0.39558931812E+01  0.50400000000E-02 0.  1.
          1   -1    0    0    0  501  0.00000000000E+00 -0.00000000000E+00 -0.23481419509E+03  0.23481419514E+03  0.50400000000E-02 0.  1.
          2    1    1    2    0  502  0.10177010133E+02  0.26477842250E+02 -0.15909249390E+03  0.16160157575E+03  0.25500000000E-02 0.  1.
         -2    1    1    2  502    0 -0.10177010133E+02 -0.26477842250E+02 -0.71765811219E+02  0.77168512567E+02  0.25500000000E-02 0.  1.
<mgrwt>
<rscale>  0 0.60955706E+02</rscale>
<asrwt>0</asrwt>
<pdfrwt beam="2">  1        1 0.36125250E-01 0.60955706E+02</pdfrwt>
<pdfrwt beam="1">  1       -1 0.60859889E-03 0.60955706E+02</pdfrwt>
<totfact> 0.35024575E+05</totfact>
</mgrwt>
</event>
<event>
 4    1  0.1893769E-002  0.4410217E+02  0.7818608E-02  0.1480026E+00
          1   -1    0    0    0  501  0.00000000000E+00  0.00000000000E+00  0.24040680118E+02  0.24040680647E+02  0.50400000000E-02 0. -1.
         -1   -1    0    0  501    0 -0.00000000000E+00 -0.00000000000E+00 -0.20226151330E+02  0.20226151958E+02  0.50400000000E-02 0. -1.
          2    1    1    2    0  502 -0.23970169397E+00 -0.20308196967E+02 -0.67137569699E+01  0.21390532020E+02  0.25500000000E-02 0.  1.
         -2    1    1    2  502    0  0.23970169397E+00  0.20308196967E+02  0.10528285758E+02  0.22876300585E+02  0.25500000000E-02 0.  1.
<mgrwt>
<rscale>  0 0.44102175E+02</rscale>
<asrwt>0</asrwt>
<pdfrwt beam="1">  1        1 0.36985662E-02 0.44102175E+02</pdfrwt>
<pdfrwt beam="2">  1       -1 0.31117157E-02 0.44102175E+02</pdfrwt>
<totfact> 0.60240470E+05</totfact>
</mgrwt>
</event>
<event>
 4    1  0.1893769E-002  0.1402695E+03  0.7818608E-02  0.1212967E+00
         -1   -1    0    0  501    0 -0.00000000000E+00  0.00000000000E+00  0.40860253466E+03  0.40860253469E+03  0.50400000000E-02 0.  1.
          1   -1    0    0    0  501  0.00000000000E+00 -0.00000000000E+00 -0.12038301668E+02  0.12038302723E+02  0.50400000000E-02 0.  1.
          2    1    1    2    0  502  0.27001755891E+02  0.64172204474E+02  0.22367726231E+03  0.23426199933E+03  0.25500000000E-02 0.  1.
         -2    1    1    2  502    0 -0.27001755891E+02 -0.64172204474E+02  0.17288697068E+03  0.18637883808E+03  0.25500000000E-02 0.  1.
<mgrwt>
<rscale>  0 0.14026947E+03</rscale>
<asrwt>0</asrwt>
<pdfrwt beam="2">  1        1 0.18520468E-02 0.14026947E+03</pdfrwt>
<pdfrwt beam="1">  1       -1 0.62861917E-01 0.14026947E+03</pdfrwt>
<totfact> 0.16772482E+04</totfact>
</mgrwt>
</event>
<event>
 4    1  0.1893769E-002  0.4889461E+02  0.7818608E-02  0.1451397E+00
         -1   -1    0    0  501    0 -0.00000000000E+00  0.00000000000E+00  0.19099439635E+02  0.19099440300E+02  0.50400000000E-02 0. -1.
          1   -1    0    0    0  501  0.00000000000E+00 -0.00000000000E+00 -0.31292581314E+02  0.31292581720E+02  0.50400000000E-02 0. -1.
          2    1    1    2    0  502 -0.14605387755E+02 -0.17573939529E+02 -0.15052347516E+02  0.27363001924E+02  0.25500000000E-02 0. -1.
         -2    1    1    2  502    0  0.14605387755E+02  0.17573939529E+02  0.28592058379E+01  0.23029020096E+02  0.25500000000E-02 0. -1.
<mgrwt>
<rscale>  0 0.48894613E+02</rscale>
<asrwt>0</asrwt>
<pdfrwt beam="2">  1        1 0.48142434E-02 0.48894613E+02</pdfrwt>
<pdfrwt beam="1">  1       -1 0.29383754E-02 0.48894613E+02</pdfrwt>
<totfact> 0.47274864E+05</totfact>
</mgrwt>
</event>
<event>
 4    1  0.1893769E-002  0.4631967E+02  0.7818608E-02  0.1466267E+00
          1   -1    0    0    0  501  0.00000000000E+00  0.00000000000E+00  0.12475828050E+03  0.12475828060E+03  0.50400000000E-02 0.  1.
         -1   -1    0    0  501    0 -0.00000000000E+00 -0.00000000000E+00 -0.42993352969E+01  0.42993382510E+01  0.50400000000E-02 0.  1.
          2    1    1    2    0  502 -0.13938589626E+02  0.18259736894E+02  0.52022784662E+02  0.56868905411E+02  0.25500000000E-02 0. -1.
         -2    1    1    2  502    0  0.13938589626E+02 -0.18259736894E+02  0.68436160543E+02  0.72188713443E+02  0.25500000000E-02 0. -1.
<mgrwt>
<rscale>  0 0.46319666E+02</rscale>
<asrwt>0</asrwt>
<pdfrwt beam="1">  1        1 0.19193582E-01 0.46319666E+02</pdfrwt>
<pdfrwt beam="2">  1       -1 0.66143644E-03 0.46319666E+02</pdfrwt>
<totfact> 0.63082729E+05</totfact>
</mgrwt>
</event>
<event>
 4    1  0.1893769E-002  0.5834528E+02  0.7818608E-02  0.1404910E+00
         -1   -1    0    0  501    0 -0.00000000000E+00  0.00000000000E+00  0.24996309146E+01  0.24996359957E+01  0.50400000000E-02 0. -1.
          1   -1    0    0    0  501  0.00000000000E+00 -0.00000000000E+00 -0.34046709705E+03  0.34046709709E+03  0.50400000000E-02 0. -1.
          2    1    1    2    0  502 -0.10082910734E+02 -0.19444793340E+02 -0.55718716032E+02  0.59869361109E+02  0.25500000000E-02 0.  1.
         -2    1    1    2  502    0  0.10082910734E+02  0.19444793340E+02 -0.28224875011E+03  0.28309737198E+03  0.25500000000E-02 0.  1.
<mgrwt>
<rscale>  0 0.58345281E+02</rscale>
<asrwt>0</asrwt>
<pdfrwt beam="2">  1        1 0.52379517E-01 0.58345281E+02</pdfrwt>
<pdfrwt beam="1">  1       -1 0.38455926E-03 0.58345281E+02</pdfrwt>
<totfact> 0.41842517E+05</totfact>
</mgrwt>
</event>
<event>
 4    1  0.1893769E-002  0.5472918E+02  0.7818608E-02  0.1421384E+00
          1   -1    0    0    0  501  0.00000000000E+00  0.00000000000E+00  0.40183884570E+01  0.40183916177E+01  0.50400000000E-02 0. -1.
         -1   -1    0    0  501    0 -0.00000000000E+00 -0.00000000000E+00 -0.18634847368E+03  0.18634847375E+03  0.50400000000E-02 0. -1.
          2    1    1    2    0  502 -0.23274432580E+02  0.13042168028E+02 -0.11232969390E+03  0.11545456898E+03  0.25500000000E-02 0. -1.
         -2    1    1    2  502    0  0.23274432580E+02 -0.13042168028E+02 -0.70000391319E+02  0.74912296388E+02  0.25500000000E-02 0. -1.
<mgrwt>
<rscale>  0 0.54729183E+02</rscale>
<asrwt>0</asrwt>
<pdfrwt beam="1">  1        1 0.61821400E-03 0.54729183E+02</pdfrwt>
<pdfrwt beam="2">  1       -1 0.28668989E-01 0.54729183E+02</pdfrwt>
<totfact> 0.26091522E+05</totfact>
</mgrwt>
</event>
<event>
 4    1  0.1893769E-002  0.5971116E+02  0.7818608E-02  0.1399048E+00
          1   -1    0    0    0  501  0.00000000000E+00  0.00000000000E+00  0.54057483823E+03  0.54057483825E+03  0.50400000000E-02 0.  1.
         -1   -1    0    0  501    0 -0.00000000000E+00 -0.00000000000E+00 -0.16488993106E+01  0.16489070132E+01  0.50400000000E-02 0.  1.
          2    1    1    2    0  502 -0.26399064382E+02  0.10823651197E+02  0.34929821143E+03  0.35046155644E+03  0.25500000000E-02 0.  1.
         -2    1    1    2  502    0  0.26399064382E+02 -0.10823651197E+02  0.18962772749E+03  0.19176218883E+03  0.25500000000E-02 0.  1.
<mgrwt>
<rscale>  0 0.59711157E+02</rscale>
<asrwt>0</asrwt>
<pdfrwt beam="1">  1        1 0.83165532E-01 0.59711157E+02</pdfrwt>
<pdfrwt beam="2">  1       -1 0.25367689E-03 0.59711157E+02</pdfrwt>
<totfact> 0.42066874E+05</totfact>
</mgrwt>
</event>
<event>
 4    1  0.1893769E-002  0.8393570E+02  0.7818608E-02  0.1318239E+00
          1   -1    0    0    0  501  0.00000000000E+00  0.00000000000E+00  0.93957018227E+03  0.93957018228E+03  0.50400000000E-02 0.  1.
         -1   -1    0    0  501    0 -0.00000000000E+00 -0.00000000000E+00 -0.18745775089E+01  0.18745842842E+01  0.50400000000E-02 0.  1.
          2    1    1    2    0  502  0.24444666574E+02 -0.17020645148E+02  0.80045032807E+03  0.80100435192E+03  0.25500000000E-02 0. -1.
         -2    1    1    2  502    0 -0.24444666574E+02  0.17020645148E+02  0.13724527669E+03  0.14044041465E+03  0.25500000000E-02 0. -1.
<mgrwt>
<rscale>  0 0.83935697E+02</rscale>
<asrwt>0</asrwt>
<pdfrwt beam="1">  1        1 0.14454893E+00 0.83935697E+02</pdfrwt>
<pdfrwt beam="2">  1       -1 0.28839773E-03 0.83935697E+02</pdfrwt>
<totfact> 0.17164155E+05</totfact>
</mgrwt>
</event>
<event>
 4    1  0.1893769E-002  0.4020526E+02  0.7818608E-02  0.1506706E+00
          1   -1    0    0    0  501  0.00000000000E+00  0.00000000000E+00  0.19342326307E+01  0.19342391970E+01  0.50400000000E-02 0. -1.
         -1   -1    0    0  501    0 -0.00000000000E+00 -0.00000000000E+00 -0.20892780520E+03  0.20892780526E+03  0.50400000000E-02 0. -1.
          2    1    1    2    0  502 -0.61176393648E+01 -0.19144990053E+02 -0.10559145945E+03  0.10748726655E+03  0.25500000000E-02 0.  1.
         -2    1    1    2  502    0  0.61176393648E+01  0.19144990053E+02 -0.10140211312E+03  0.10337477791E+03  0.25500000000E-02 0.  1.
<mgrwt>
<rscale>  0 0.40205257E+02</rscale>
<asrwt>0</asrwt>
<pdfrwt beam="1">  1        1 0.29757493E-03 0.40205257E+02</pdfrwt>
<pdfrwt beam="2">  1       -1 0.32142722E-01 0.40205257E+02</pdfrwt>
<totfact> 0.54004557E+05</totfact>
</mgrwt>
</event>
<event>
 4    1  0.1893769E-002  0.3305443E+03  0.7818608E-02  0.1070896E+00
          1   -1    0    0    0  501  0.00000000000E+00  0.00000000000E+00  0.25180806711E+02  0.25180807216E+02  0.50400000000E-02 0.  1.
         -1   -1    0    0  501    0 -0.00000000000E+00 -0.00000000000E+00 -0.10847501429E+04  0.10847501430E+04  0.50400000000E-02 0.  1.
          2    1    1    2    0  502  0.13493977250E+03  0.34355620580E+02 -0.23084142113E+03  0.26958637314E+03  0.25500000000E-02 0. -1.
         -2    1    1    2  502    0 -0.13493977250E+03 -0.34355620580E+02 -0.82872791510E+03  0.84034457703E+03  0.25500000000E-02 0. -1.
<mgrwt>
<rscale>  0 0.33054430E+03</rscale>
<asrwt>0</asrwt>
<pdfrwt beam="1">  1        1 0.38739711E-02 0.33054430E+03</pdfrwt>
<pdfrwt beam="2">  1       -1 0.16688460E+00 0.33054430E+03</pdfrwt>
<totfact> 0.67491902E+02</totfact>
</mgrwt>
</event>
<event>
 4    1  0.1893769E-002  0.6400650E+02  0.7818608E-02  0.1381748E+00
          1   -1    0    0    0  501  0.00000000000E+00  0.00000000000E+00  0.11939954414E+03  0.11939954425E+03  0.50400000000E-02 0. -1.
         -1   -1    0    0  501    0 -0.00000000000E+00 -0.00000000000E+00 -0.85779890974E+01  0.85779905780E+01  0.50400000000E-02 0. -1.
          2    1    1    2    0  502  0.27395832598E+02  0.15269232569E+02  0.42682145162E+02  0.52966467025E+02  0.25500000000E-02 0. -1.
         -2    1    1    2  502    0 -0.27395832598E+02 -0.15269232569E+02  0.68139409884E+02  0.75011067802E+02  0.25500000000E-02 0. -1.
<mgrwt>
<rscale>  0 0.64006502E+02</rscale>
<asrwt>0</asrwt>
<pdfrwt beam="1">  1        1 0.18369160E-01 0.64006502E+02</pdfrwt>
<pdfrwt beam="2">  1       -1 0.13196908E-02 0.64006502E+02</pdfrwt>
<totfact> 0.27522581E+05</totfact>
</mgrwt>
</event>
<event>
 4    1  0.1893769E-002  0.4535748E+02  0.7818608E-02  0.1472122E+00
          1   -1    0    0    0  501  0.00000000000E+00  0.00000000000E+00  0.15768526754E+04  0.15768526755E+04  0.50400000000E-02 0.  1.
         -1   -1    0    0  501    0 -0.00000000000E+00 -0.00000000000E+00 -0.32615259941E+00  0.32619153837E+00  0.50400000000E-02 0.  1.
          2    1    1    2    0  502  0.22324545166E+01 -0.21895533216E+02  0.59803976501E+03  0.59844461629E+03  0.25500000000E-02 0. -1.
         -2    1    1    2  502    0 -0.22324545166E+01  0.21895533216E+02  0.97848675783E+03  0.97873425070E+03  0.25500000000E-02 0. -1.
<mgrwt>
<rscale>  0 0.45357483E+02</rscale>
<asrwt>0</asrwt>
<pdfrwt beam="1">  1        1 0.24259539E+00 0.45357483E+02</pdfrwt>
<pdfrwt beam="2">  1       -1 0.50179767E-04 0.45357483E+02</pdfrwt>
<totfact> 0.63235504E+05</totfact>
</mgrwt>
</event>
<event>
 4    1  0.1893769E-002  0.6368992E+02  0.7818608E-02  0.1382968E+00
         -1   -1    0    0  501    0 -0.00000000000E+00  0.00000000000E+00  0.33591011617E+02  0.33591011996E+02  0.50400000000E-02 0. -1.
          1   -1    0    0    0  501  0.00000000000E+00 -0.00000000000E+00 -0.30189663431E+02  0.30189663852E+02  0.50400000000E-02 0. -1.
          2    1    1    2    0  502  0.21990036762E+02  0.48524319662E+01  0.24249277696E+02  0.33092828348E+02  0.25500000000E-02 0. -1.
         -2    1    1    2  502    0 -0.21990036762E+02 -0.48524319662E+01 -0.20847929510E+02  0.30687847499E+02  0.25500000000E-02 0. -1.
<mgrwt>
<rscale>  0 0.63689916E+02</rscale>
<asrwt>0</asrwt>
<pdfrwt beam="2">  1        1 0.46445637E-02 0.63689916E+02</pdfrwt>
<pdfrwt beam="1">  1       -1 0.51678480E-02 0.63689916E+02</pdfrwt>
<totfact> 0.23495992E+05</totfact>
</mgrwt>
</event>
<event>
 4    1  0.1893769E-002  0.4954497E+02  0.7818608E-02  0.1447811E+00
         -1   -1    0    0  501    0 -0.00000000000E+00  0.00000000000E+00  0.39216635929E+00  0.39219874420E+00  0.50400000000E-02 0.  1.
          1   -1    0    0    0  501  0.00000000000E+00 -0.00000000000E+00 -0.15647713829E+04  0.15647713829E+04  0.50400000000E-02 0.  1.
          2    1    1    2    0  502 -0.10493049845E+02 -0.20402790239E+02 -0.48702618606E+03  0.48756628663E+03  0.25500000000E-02 0. -1.
         -2    1    1    2  502    0  0.10493049845E+02  0.20402790239E+02 -0.10773530305E+04  0.10775972950E+04  0.25500000000E-02 0. -1.
<mgrwt>
<rscale>  0 0.49544971E+02</rscale>
<asrwt>0</asrwt>
<pdfrwt beam="2">  1        1 0.24072906E+00 0.49544971E+02</pdfrwt>
<pdfrwt beam="1">  1       -1 0.60337031E-04 0.49544971E+02</pdfrwt>
<totfact> 0.51134146E+05</totfact>
</mgrwt>
</event>
<event>
 4    1  0.1893769E-002  0.7707671E+02  0.7818608E-02  0.1337558E+00
          1   -1    0    0    0  501  0.00000000000E+00  0.00000000000E+00  0.10034238723E+02  0.10034239989E+02  0.50400000000E-02 0. -1.
         -1   -1    0    0  501    0 -0.00000000000E+00 -0.00000000000E+00 -0.14801370606E+03  0.14801370615E+03  0.50400000000E-02 0. -1.
          2    1    1    2    0  502 -0.44520418571E+01 -0.34592693319E+02 -0.10260399885E+03  0.10836999444E+03  0.25500000000E-02 0. -1.
         -2    1    1    2  502    0  0.44520418571E+01  0.34592693319E+02 -0.35375468489E+02  0.49677951699E+02  0.25500000000E-02 0. -1.
<mgrwt>
<rscale>  0 0.77076714E+02</rscale>
<asrwt>0</asrwt>
<pdfrwt beam="1">  1        1 0.15437292E-02 0.77076714E+02</pdfrwt>
<pdfrwt beam="2">  1       -1 0.22771338E-01 0.77076714E+02</pdfrwt>
<totfact> 0.11576487E+05</totfact>
</mgrwt>
</event>
<event>
 4    1  0.1893769E-002  0.4283953E+02  0.7818608E-02  0.1488298E+00
          1   -1    0    0    0  501  0.00000000000E+00  0.00000000000E+00  0.19348484836E+01  0.19348550479E+01  0.50400000000E-02 0.  1.
         -1   -1    0    0  501    0 -0.00000000000E+00 -0.00000000000E+00 -0.23712738997E+03  0.23712739002E+03  0.50400000000E-02 0.  1.
          2    1    1    2    0  502 -0.56923985727E+01  0.19410635612E+02 -0.78282997629E+02  0.80854213871E+02  0.25500000000E-02 0.  1.
         -2    1    1    2  502    0  0.56923985727E+01 -0.19410635612E+02 -0.15690954385E+03  0.15820803120E+03  0.25500000000E-02 0.  1.
<mgrwt>
<rscale>  0 0.42839531E+02</rscale>
<asrwt>0</asrwt>
<pdfrwt beam="1">  1        1 0.29766969E-03 0.42839531E+02</pdfrwt>
<pdfrwt beam="2">  1       -1 0.36481114E-01 0.42839531E+02</pdfrwt>
<totfact> 0.44555952E+05</totfact>
</mgrwt>
</event>
<event>
 4    1  0.1893769E-002  0.5260227E+02  0.7818608E-02  0.1431791E+00
          1   -1    0    0    0  501  0.00000000000E+00  0.00000000000E+00  0.61701139800E+03  0.61701139802E+03  0.50400000000E-02 0.  1.
         -1   -1    0    0  501    0 -0.00000000000E+00 -0.00000000000E+00 -0.11211237705E+01  0.11211350990E+01  0.50400000000E-02 0.  1.
          2    1    1    2    0  502  0.24786770746E+02  0.56196318241E+01  0.38745857729E+03  0.38829127390E+03  0.25500000000E-02 0. -1.
         -2    1    1    2  502    0 -0.24786770746E+02 -0.56196318241E+01  0.22843169694E+03  0.22984125922E+03  0.25500000000E-02 0. -1.
<mgrwt>
<rscale>  0 0.52602268E+02</rscale>
<asrwt>0</asrwt>
<pdfrwt beam="1">  1        1 0.94924787E-01 0.52602268E+02</pdfrwt>
<pdfrwt beam="2">  1       -1 0.17248153E-03 0.52602268E+02</pdfrwt>
<totfact> 0.58373813E+05</totfact>
</mgrwt>
</event>
<event>
 4    1  0.1893769E-002  0.4495956E+02  0.7818608E-02  0.1474594E+00
          1   -1    0    0    0  501  0.00000000000E+00  0.00000000000E+00  0.72219552108E+01  0.72219569694E+01  0.50400000000E-02 0.  1.
         -1   -1    0    0  501    0 -0.00000000000E+00 -0.00000000000E+00 -0.69972812858E+02  0.69972813039E+02  0.50400000000E-02 0.  1.
          2    1    1    2    0  502 -0.20009096434E+02  0.55505398083E+01 -0.16588617529E+02  0.26577333769E+02  0.25500000000E-02 0.  1.
         -2    1    1    2  502    0  0.20009096434E+02 -0.55505398083E+01 -0.46162240118E+02  0.50617436239E+02  0.25500000000E-02 0.  1.
<mgrwt>
<rscale>  0 0.44959564E+02</rscale>
<asrwt>0</asrwt>
<pdfrwt beam="1">  1        1 0.11110702E-02 0.44959564E+02</pdfrwt>
<pdfrwt beam="2">  1       -1 0.10765048E-01 0.44959564E+02</pdfrwt>
<totfact> 0.50938218E+05</totfact>
</mgrwt>
</event>
<event>
 4    1  0.1893769E-002  0.4246132E+02  0.7818608E-02  0.1490842E+00
         -1   -1    0    0  501    0 -0.00000000000E+00  0.00000000000E+00  0.98575695972E+01  0.98575708856E+01  0.50400000000E-02 0.  1.
          1   -1    0    0    0  501  0.00000000000E+00 -0.00000000000E+00 -0.45725362702E+02  0.45725362980E+02  0.50400000000E-02 0.  1.
          2    1    1    2    0  502 -0.30339560729E+01  0.19786374477E+02 -0.27193384490E+02  0.33766635470E+02  0.25500000000E-02 0. -1.
         -2    1    1    2  502    0  0.30339560729E+01 -0.19786374477E+02 -0.86744086141E+01  0.21816298396E+02  0.25500000000E-02 0. -1.
<mgrwt>
<rscale>  0 0.42461323E+02</rscale>
<asrwt>0</asrwt>
<pdfrwt beam="2">  1        1 0.70346712E-02 0.42461323E+02</pdfrwt>
<pdfrwt beam="1">  1       -1 0.15165493E-02 0.42461323E+02</pdfrwt>
<totfact> 0.69883803E+05</totfact>
</mgrwt>
</event>
<event>
 4    1  0.1893769E-002  0.4728592E+02  0.7818608E-02  0.1460556E+00
         -1   -1    0    0  501    0 -0.00000000000E+00  0.00000000000E+00  0.10628761752E+01  0.10628881246E+01  0.50400000000E-02 0. -1.
          1   -1    0    0    0  501  0.00000000000E+00 -0.00000000000E+00 -0.52591869270E+03  0.52591869272E+03  0.50400000000E-02 0. -1.
          2    1    1    2    0  502 -0.23161145158E+02 -0.31333258096E+01 -0.30219581385E+03  0.30309827827E+03  0.25500000000E-02 0.  1.
         -2    1    1    2  502    0  0.23161145158E+02  0.31333258096E+01 -0.22266000267E+03  0.22388330257E+03  0.25500000000E-02 0.  1.
<mgrwt>
<rscale>  0 0.47285922E+02</rscale>
<asrwt>0</asrwt>
<pdfrwt beam="2">  1        1 0.80910361E-01 0.47285922E+02</pdfrwt>
<pdfrwt beam="1">  1       -1 0.16352075E-03 0.47285922E+02</pdfrwt>
<totfact> 0.75193359E+05</totfact>
</mgrwt>
</event>
<event>
 4    1  0.1893769E-002  0.8102108E+02  0.7818608E-02  0.1326178E+00
         -1   -1    0    0  501    0 -0.00000000000E+00  0.00000000000E+00  0.16743316021E+01  0.16743391876E+01  0.50400000000E-02 0.  1.
          1   -1    0    0    0  501  0.00000000000E+00 -0.00000000000E+00 -0.98015229691E+03  0.98015229693E+03  0.50400000000E-02 0.  1.
          2    1    1    2    0  502 -0.56368503128E+01 -0.24043443087E+02 -0.10008883997E+03  0.10309043181E+03  0.25500000000E-02 0.  1.
         -2    1    1    2  502    0  0.56368503128E+01  0.24043443087E+02 -0.87838912534E+03  0.87873620431E+03  0.25500000000E-02 0.  1.
<mgrwt>
<rscale>  0 0.81021076E+02</rscale>
<asrwt>0</asrwt>
<pdfrwt beam="2">  1        1 0.15079220E+00 0.81021076E+02</pdfrwt>
<pdfrwt beam="1">  1       -1 0.25759085E-03 0.81021076E+02</pdfrwt>
<totfact> 0.18647609E+05</totfact>
</mgrwt>
</event>
<event>
 4    1  0.1893769E-002  0.4246286E+02  0.7818608E-02  0.1490832E+00
          1   -1    0    0    0  501  0.00000000000E+00  0.00000000000E+00  0.18524721803E+04  0.18524721803E+04  0.50400000000E-02 0.  1.
         -1   -1    0    0  501    0 -0.00000000000E+00 -0.00000000000E+00 -0.24331018023E+00  0.24336237467E+00  0.50400000000E-02 0.  1.
          2    1    1    2    0  502 -0.17667032228E+02 -0.11774920838E+02  0.92480392408E+03  0.92504760460E+03  0.25500000000E-02 0.  1.
         -2    1    1    2  502    0  0.17667032228E+02  0.11774920838E+02  0.92742494606E+03  0.92766793810E+03  0.25500000000E-02 0.  1.
<mgrwt>
<rscale>  0 0.42462864E+02</rscale>
<asrwt>0</asrwt>
<pdfrwt beam="1">  1        1 0.28499975E+00 0.42462864E+02</pdfrwt>
<pdfrwt beam="2">  1       -1 0.37435823E-04 0.42462864E+02</pdfrwt>
<totfact> 0.62711106E+05</totfact>
</mgrwt>
</event>
<event>
 4    1  0.1893769E-002  0.5475368E+02  0.7818608E-02  0.1421267E+00
          1   -1    0    0    0  501  0.00000000000E+00  0.00000000000E+00  0.26149044200E+02  0.26149044685E+02  0.50400000000E-02 0.  1.
         -1   -1    0    0  501    0 -0.00000000000E+00 -0.00000000000E+00 -0.28662286686E+02  0.28662287129E+02  0.50400000000E-02 0.  1.
          2    1    1    2    0  502  0.10941187746E+02  0.20827992719E+02 -0.15270523329E+02  0.28048239860E+02  0.25500000000E-02 0. -1.
         -2    1    1    2  502    0 -0.10941187746E+02 -0.20827992719E+02  0.12757280842E+02  0.26763091955E+02  0.25500000000E-02 0. -1.
<mgrwt>
<rscale>  0 0.54753682E+02</rscale>
<asrwt>0</asrwt>
<pdfrwt beam="1">  1        1 0.40229299E-02 0.54753682E+02</pdfrwt>
<pdfrwt beam="2">  1       -1 0.44095826E-02 0.54753682E+02</pdfrwt>
<totfact> 0.34621130E+05</totfact>
</mgrwt>
</event>
<event>
 4    1  0.1893769E-002  0.5024746E+02  0.7818608E-02  0.1444011E+00
         -1   -1    0    0  501    0 -0.00000000000E+00  0.00000000000E+00  0.10234389015E+03  0.10234389028E+03  0.50400000000E-02 0.  1.
          1   -1    0    0    0  501  0.00000000000E+00 -0.00000000000E+00 -0.61674593824E+01  0.61674614417E+01  0.50400000000E-02 0.  1.
          2    1    1    2    0  502 -0.24463736468E+02  0.56891907901E+01  0.46791406126E+02  0.53106280114E+02  0.25500000000E-02 0. -1.
         -2    1    1    2  502    0  0.24463736468E+02 -0.56891907901E+01  0.49385024645E+02  0.55405071604E+02  0.25500000000E-02 0. -1.
<mgrwt>
<rscale>  0 0.50247464E+02</rscale>
<asrwt>0</asrwt>
<pdfrwt beam="2">  1        1 0.94884007E-03 0.50247464E+02</pdfrwt>
<pdfrwt beam="1">  1       -1 0.15745214E-01 0.50247464E+02</pdfrwt>
<totfact> 0.36626872E+05</totfact>
</mgrwt>
</event>
<event>
 4    1  0.1893769E-002  0.4185845E+02  0.7818608E-02  0.1494964E+00
          1   -1    0    0    0  501  0.00000000000E+00  0.00000000000E+00  0.99318755025E+00  0.99320033808E+00  0.50400000000E-02 0. -1.
         -1   -1    0    0  501    0 -0.00000000000E+00 -0.00000000000E+00 -0.44103417506E+03  0.44103417509E+03  0.50400000000E-02 0. -1.
          2    1    1    2    0  502 -0.10565910836E+02 -0.18050009894E+02 -0.22813971780E+03  0.22909642550E+03  0.25500000000E-02 0. -1.
         -2    1    1    2  502    0  0.10565910836E+02  0.18050009894E+02 -0.21190126971E+03  0.21293094993E+03  0.25500000000E-02 0. -1.
<mgrwt>
<rscale>  0 0.41858451E+02</rscale>
<asrwt>0</asrwt>
<pdfrwt beam="1">  1        1 0.15279942E-03 0.41858451E+02</pdfrwt>
<pdfrwt beam="2">  1       -1 0.67851256E-01 0.41858451E+02</pdfrwt>
<totfact> 0.36278769E+05</totfact>
</mgrwt>
</event>
<event>
 4    1  0.1893769E-002  0.4952874E+02  0.7818608E-02  0.1447900E+00
          1   -1    0    0    0  501  0.00000000000E+00  0.00000000000E+00  0.15266057491E+04  0.15266057491E+04  0.50400000000E-02 0.  1.
         -1   -1    0    0  501    0 -0.00000000000E+00 -0.00000000000E+00 -0.40170804517E+00  0.40173966092E+00  0.50400000000E-02 0.  1.
          2    1    1    2    0  502 -0.15684387299E+02  0.18681638944E+02  0.63131978123E+03  0.63179084341E+03  0.25500000000E-02 0.  1.
         -2    1    1    2  502    0  0.15684387299E+02 -0.18681638944E+02  0.89488425982E+03  0.89521664535E+03  0.25500000000E-02 0.  1.
<mgrwt>
<rscale>  0 0.49528737E+02</rscale>
<asrwt>0</asrwt>
<pdfrwt beam="1">  1        1 0.23486231E+00 0.49528737E+02</pdfrwt>
<pdfrwt beam="2">  1       -1 0.61803701E-04 0.49528737E+02</pdfrwt>
<totfact> 0.52268081E+05</totfact>
</mgrwt>
</event>
<event>
 4    1  0.1893769E-002  0.1379545E+03  0.7818608E-02  0.1216108E+00
         -1   -1    0    0  501    0 -0.00000000000E+00  0.00000000000E+00  0.54207774512E+02  0.54207774746E+02  0.50400000000E-02 0. -1.
          1   -1    0    0    0  501  0.00000000000E+00 -0.00000000000E+00 -0.87770834700E+02  0.87770834845E+02  0.50400000000E-02 0. -1.
          2    1    1    2    0  502 -0.37043977504E+02  0.53983749354E+02  0.55626004985E+01  0.65707259830E+02  0.25500000000E-02 0.  1.
         -2    1    1    2  502    0  0.37043977504E+02 -0.53983749354E+02 -0.39125660687E+02  0.76271349760E+02  0.25500000000E-02 0.  1.
<mgrwt>
<rscale>  0 0.13795451E+03</rscale>
<asrwt>0</asrwt>
<pdfrwt beam="2">  1        1 0.13503205E-01 0.13795451E+03</pdfrwt>
<pdfrwt beam="1">  1       -1 0.83396576E-02 0.13795451E+03</pdfrwt>
<totfact> 0.31781817E+04</totfact>
</mgrwt>
</event>
<event>
 4    1  0.1893769E-002  0.4579633E+02  0.7818608E-02  0.1469431E+00
          1   -1    0    0    0  501  0.00000000000E+00  0.00000000000E+00  0.68041382700E+02  0.68041382887E+02  0.50400000000E-02 0.  1.
         -1   -1    0    0  501    0 -0.00000000000E+00 -0.00000000000E+00 -0.77059866954E+01  0.77059883436E+01  0.50400000000E-02 0.  1.
          2    1    1    2    0  502  0.73587312783E+01 -0.20359766157E+02  0.17828437517E+02  0.28045038684E+02  0.25500000000E-02 0. -1.
         -2    1    1    2  502    0 -0.73587312783E+01  0.20359766157E+02  0.42506958488E+02  0.47702332546E+02  0.25500000000E-02 0. -1.
<mgrwt>
<rscale>  0 0.45796334E+02</rscale>
<asrwt>0</asrwt>
<pdfrwt beam="1">  1        1 0.10467905E-01 0.45796334E+02</pdfrwt>
<pdfrwt beam="2">  1       -1 0.11855365E-02 0.45796334E+02</pdfrwt>
<totfact> 0.60113981E+05</totfact>
</mgrwt>
</event>
<event>
 4    1  0.1893769E-002  0.4060061E+02  0.7818608E-02  0.1503838E+00
          1   -1    0    0    0  501  0.00000000000E+00  0.00000000000E+00  0.10049968464E+01  0.10050094840E+01  0.50400000000E-02 0.  1.
         -1   -1    0    0  501    0 -0.00000000000E+00 -0.00000000000E+00 -0.41005091118E+03  0.41005091121E+03  0.50400000000E-02 0.  1.
          2    1    1    2    0  502  0.18016707179E+01 -0.19927818100E+02 -0.16983530229E+03  0.17100992328E+03  0.25500000000E-02 0. -1.
         -2    1    1    2  502    0 -0.18016707179E+01  0.19927818100E+02 -0.23921061204E+03  0.24004599741E+03  0.25500000000E-02 0. -1.
<mgrwt>
<rscale>  0 0.40600615E+02</rscale>
<asrwt>0</asrwt>
<pdfrwt beam="1">  1        1 0.15461620E-03 0.40600615E+02</pdfrwt>
<pdfrwt beam="2">  1       -1 0.63084623E-01 0.40600615E+02</pdfrwt>
<totfact> 0.40602471E+05</totfact>
</mgrwt>
</event>
<event>
 4    1  0.1893769E-002  0.8857170E+02  0.7818608E-02  0.1306348E+00
          1   -1    0    0    0  501  0.00000000000E+00  0.00000000000E+00  0.17884714910E+03  0.17884714917E+03  0.50400000000E-02 0. -1.
         -1   -1    0    0  501    0 -0.00000000000E+00 -0.00000000000E+00 -0.10965992432E+02  0.10965993591E+02  0.50400000000E-02 0. -1.
          2    1    1    2    0  502 -0.36848195073E+02  0.77349348703E+01  0.33974166605E+02  0.50713535674E+02  0.25500000000E-02 0.  1.
         -2    1    1    2  502    0  0.36848195073E+02 -0.77349348703E+01  0.13390699006E+03  0.13909960708E+03  0.25500000000E-02 0.  1.
<mgrwt>
<rscale>  0 0.88571702E+02</rscale>
<asrwt>0</asrwt>
<pdfrwt beam="1">  1        1 0.27514945E-01 0.88571702E+02</pdfrwt>
<pdfrwt beam="2">  1       -1 0.16870759E-02 0.88571702E+02</pdfrwt>
<totfact> 0.12525024E+05</totfact>
</mgrwt>
</event>
<event>
 4    1  0.1893769E-002  0.5990478E+02  0.7818608E-02  0.1398232E+00
          1   -1    0    0    0  501  0.00000000000E+00  0.00000000000E+00  0.10837340250E+03  0.10837340261E+03  0.50400000000E-02 0.  1.
         -1   -1    0    0  501    0 -0.00000000000E+00 -0.00000000000E+00 -0.82782818638E+01  0.82782833980E+01  0.50400000000E-02 0.  1.
          2    1    1    2    0  502  0.25365021424E+02  0.14137805001E+02  0.35753397290E+02  0.46060474014E+02  0.25500000000E-02 0.  1.
         -2    1    1    2  502    0 -0.25365021424E+02 -0.14137805001E+02  0.64341723343E+02  0.70591211998E+02  0.25500000000E-02 0.  1.
<mgrwt>
<rscale>  0 0.59904780E+02</rscale>
<asrwt>0</asrwt>
<pdfrwt beam="1">  1        1 0.16672831E-01 0.59904780E+02</pdfrwt>
<pdfrwt beam="2">  1       -1 0.12735819E-02 0.59904780E+02</pdfrwt>
<totfact> 0.32195776E+05</totfact>
</mgrwt>
</event>
<event>
 4    1  0.1893769E-002  0.1147312E+03  0.7818608E-02  0.1252051E+00
         -1   -1    0    0  501    0 -0.00000000000E+00  0.00000000000E+00  0.13718109277E+01  0.13718201861E+01  0.50400000000E-02 0. -1.
          1   -1    0    0    0  501  0.00000000000E+00 -0.00000000000E+00 -0.23988741294E+04  0.23988741294E+04  0.50400000000E-02 0. -1.
          2    1    1    2    0  502  0.57857094059E+01  0.54183502434E+02 -0.15738584608E+04  0.15748015053E+04  0.25500000000E-02 0. -1.
         -2    1    1    2  502    0 -0.57857094059E+01 -0.54183502434E+02 -0.82364385761E+03  0.82544444426E+03  0.25500000000E-02 0. -1.
<mgrwt>
<rscale>  0 0.11473121E+03</rscale>
<asrwt>0</asrwt>
<pdfrwt beam="2">  1        1 0.36905420E+00 0.11473121E+03</pdfrwt>
<pdfrwt beam="1">  1       -1 0.21105047E-03 0.11473121E+03</pdfrwt>
<totfact> 0.30906035E+04</totfact>
</mgrwt>
</event>
<event>
 4    1  0.1893769E-002  0.7880624E+02  0.7818608E-02  0.1332474E+00
         -1   -1    0    0  501    0 -0.00000000000E+00  0.00000000000E+00  0.59910511177E+03  0.59910511179E+03  0.50400000000E-02 0.  1.
          1   -1    0    0    0  501  0.00000000000E+00 -0.00000000000E+00 -0.25915390680E+01  0.25915439689E+01  0.50400000000E-02 0.  1.
          2    1    1    2    0  502 -0.62205191189E+01 -0.22784813761E+02  0.53906808147E+03  0.53958524726E+03  0.25500000000E-02 0.  1.
         -2    1    1    2  502    0  0.62205191189E+01  0.22784813761E+02  0.57445491230E+02  0.62111408496E+02  0.25500000000E-02 0.  1.
<mgrwt>
<rscale>  0 0.78806238E+02</rscale>
<asrwt>0</asrwt>
<pdfrwt beam="2">  1        1 0.39869881E-03 0.78806238E+02</pdfrwt>
<pdfrwt beam="1">  1       -1 0.92169991E-01 0.78806238E+02</pdfrwt>
<totfact> 0.60946625E+04</totfact>
</mgrwt>
</event>
<event>
 4    1  0.1893769E-002  0.7630483E+02  0.7818608E-02  0.1339877E+00
         -1   -1    0    0  501    0 -0.00000000000E+00  0.00000000000E+00  0.89577041450E+01  0.89577055629E+01  0.50400000000E-02 0.  1.
          1   -1    0    0    0  501  0.00000000000E+00 -0.00000000000E+00 -0.16249775137E+03  0.16249775144E+03  0.50400000000E-02 0.  1.
          2    1    1    2    0  502  0.90260372095E+01 -0.30786042833E+02 -0.30373437807E+02  0.44179129821E+02  0.25500000000E-02 0. -1.
         -2    1    1    2  502    0 -0.90260372095E+01  0.30786042833E+02 -0.12316660941E+03  0.12727632719E+03  0.25500000000E-02 0. -1.
<mgrwt>
<rscale>  0 0.76304834E+02</rscale>
<asrwt>0</asrwt>
<pdfrwt beam="2">  1        1 0.24999652E-01 0.76304834E+02</pdfrwt>
<pdfrwt beam="1">  1       -1 0.13781086E-02 0.76304834E+02</pdfrwt>
<totfact> 0.18291209E+05</totfact>
</mgrwt>
</event>
<event>
 4    1  0.1893769E-002  0.4274664E+02  0.7818608E-02  0.1488920E+00
         -1   -1    0    0  501    0 -0.00000000000E+00  0.00000000000E+00  0.12554737952E+02  0.12554738963E+02  0.50400000000E-02 0. -1.
          1   -1    0    0    0  501  0.00000000000E+00 -0.00000000000E+00 -0.36386169459E+02  0.36386169808E+02  0.50400000000E-02 0. -1.
          2    1    1    2    0  502 -0.19027744114E+02 -0.95230909800E+01 -0.96046654559E+01  0.23345104688E+02  0.25500000000E-02 0.  1.
         -2    1    1    2  502    0  0.19027744114E+02  0.95230909800E+01 -0.14226766051E+02  0.25595804083E+02  0.25500000000E-02 0.  1.
<mgrwt>
<rscale>  0 0.42746642E+02</rscale>
<asrwt>0</asrwt>
<pdfrwt beam="2">  1        1 0.55978723E-02 0.42746642E+02</pdfrwt>
<pdfrwt beam="1">  1       -1 0.19314983E-02 0.42746642E+02</pdfrwt>
<totfact> 0.67402497E+05</totfact>
</mgrwt>
</event>
<event>
 4    1  0.1893769E-002  0.4327321E+02  0.7818608E-02  0.1485419E+00
          1   -1    0    0    0  501  0.00000000000E+00  0.00000000000E+00  0.14645671305E+01  0.14645758026E+01  0.50400000000E-02 0.  1.
         -1   -1    0    0  501    0 -0.00000000000E+00 -0.00000000000E+00 -0.31964481733E+03  0.31964481737E+03  0.50400000000E-02 0.  1.
          2    1    1    2    0  502 -0.11551448233E+02  0.17805594530E+02 -0.19028058920E+03  0.19146064292E+03  0.25500000000E-02 0. -1.
         -2    1    1    2  502    0  0.11551448233E+02 -0.17805594530E+02 -0.12789966099E+03  0.12964875025E+03  0.25500000000E-02 0. -1.
<mgrwt>
<rscale>  0 0.43273211E+02</rscale>
<asrwt>0</asrwt>
<pdfrwt beam="1">  1        1 0.22531894E-03 0.43273211E+02</pdfrwt>
<pdfrwt beam="2">  1       -1 0.49176071E-01 0.43273211E+02</pdfrwt>
<totfact> 0.39009334E+05</totfact>
</mgrwt>
</event>
<event>
 4    1  0.1893769E-002  0.4951790E+02  0.7818608E-02  0.1447959E+00
          1   -1    0    0    0  501  0.00000000000E+00  0.00000000000E+00  0.40617375193E+02  0.40617375505E+02  0.50400000000E-02 0.  1.
         -1   -1    0    0  501    0 -0.00000000000E+00 -0.00000000000E+00 -0.15092201261E+02  0.15092202103E+02  0.50400000000E-02 0.  1.
          2    1    1    2    0  502  0.24689394787E+02 -0.18372789542E+01  0.13046796527E+02  0.27985008755E+02  0.25500000000E-02 0.  1.
         -2    1    1    2  502    0 -0.24689394787E+02  0.18372789542E+01  0.12478377404E+02  0.27724568853E+02  0.25500000000E-02 0.  1.
<mgrwt>
<rscale>  0 0.49517901E+02</rscale>
<asrwt>0</asrwt>
<pdfrwt beam="1">  1        1 0.62488270E-02 0.49517901E+02</pdfrwt>
<pdfrwt beam="2">  1       -1 0.23218772E-02 0.49517901E+02</pdfrwt>
<totfact> 0.46851624E+05</totfact>
</mgrwt>
</event>
<event>
 4    1  0.1893769E-002  0.1129779E+03  0.7818608E-02  0.1255153E+00
          1   -1    0    0    0  501  0.00000000000E+00  0.00000000000E+00  0.14636191840E+03  0.14636191848E+03  0.50400000000E-02 0. -1.
         -1   -1    0    0  501    0 -0.00000000000E+00 -0.00000000000E+00 -0.21802123887E+02  0.21802124470E+02  0.50400000000E-02 0. -1.
          2    1    1    2    0  502  0.44714693361E+02 -0.34333569005E+02  0.56953973364E+02  0.80137087864E+02  0.25500000000E-02 0.  1.
         -2    1    1    2  502    0 -0.44714693361E+02  0.34333569005E+02  0.67605821147E+02  0.88026955090E+02  0.25500000000E-02 0.  1.
<mgrwt>
<rscale>  0 0.11297789E+03</rscale>
<asrwt>0</asrwt>
<pdfrwt beam="1">  1        1 0.22517218E-01 0.11297789E+03</pdfrwt>
<pdfrwt beam="2">  1       -1 0.33541730E-02 0.11297789E+03</pdfrwt>
<totfact> 0.62095493E+04</totfact>
</mgrwt>
</event>
<event>
 4    1  0.1893769E-002  0.5034579E+02  0.7818608E-02  0.1443485E+00
         -1   -1    0    0  501    0 -0.00000000000E+00  0.00000000000E+00  0.30751512737E+00  0.30755642598E+00  0.50400000000E-02 0. -1.
          1   -1    0    0    0  501  0.00000000000E+00 -0.00000000000E+00 -0.20604909606E+04  0.20604909606E+04  0.50400000000E-02 0. -1.
          2    1    1    2    0  502  0.20100732694E+02  0.97207709543E+01 -0.55424477781E+03  0.55469433617E+03  0.25500000000E-02 0. -1.
         -2    1    1    2  502    0 -0.20100732694E+02 -0.97207709543E+01 -0.15059386677E+04  0.15061041809E+04  0.25500000000E-02 0. -1.
<mgrwt>
<rscale>  0 0.50345792E+02</rscale>
<asrwt>0</asrwt>
<pdfrwt beam="2">  1        1 0.31698756E+00 0.50345792E+02</pdfrwt>
<pdfrwt beam="1">  1       -1 0.47314847E-04 0.50345792E+02</pdfrwt>
<totfact> 0.35353386E+05</totfact>
</mgrwt>
</event>
<event>
 4    1  0.1893769E-002  0.4259746E+02  0.7818608E-02  0.1489923E+00
         -1   -1    0    0  501    0 -0.00000000000E+00  0.00000000000E+00  0.41668378831E+00  0.41671426787E+00  0.50400000000E-02 0. -1.
          1   -1    0    0    0  501  0.00000000000E+00 -0.00000000000E+00 -0.10886414859E+04  0.10886414859E+04  0.50400000000E-02 0. -1.
          2    1    1    2    0  502 -0.10836917493E+02  0.18329741388E+02 -0.55603997094E+03  0.55644754245E+03  0.25500000000E-02 0.  1.
         -2    1    1    2  502    0  0.10836917493E+02 -0.18329741388E+02 -0.53218483119E+03  0.53261065775E+03  0.25500000000E-02 0.  1.
<mgrwt>
<rscale>  0 0.42597458E+02</rscale>
<asrwt>0</asrwt>
<pdfrwt beam="2">  1        1 0.16748103E+00 0.42597458E+02</pdfrwt>
<pdfrwt beam="1">  1       -1 0.64108415E-04 0.42597458E+02</pdfrwt>
<totfact> 0.91744720E+05</totfact>
</mgrwt>
</event>
<event>
 4    1  0.1893769E-002  0.4040917E+02  0.7818608E-02  0.1505222E+00
          1   -1    0    0    0  501  0.00000000000E+00  0.00000000000E+00  0.83757839561E+03  0.83757839562E+03  0.50400000000E-02 0. -1.
         -1   -1    0    0  501    0 -0.00000000000E+00 -0.00000000000E+00 -0.48737436130E+00  0.48740042025E+00  0.50400000000E-02 0. -1.
          2    1    1    2    0  502  0.15274641921E+02 -0.13211289047E+02  0.43120018940E+03  0.43167285783E+03  0.25500000000E-02 0.  1.
         -2    1    1    2  502    0 -0.15274641921E+02  0.13211289047E+02  0.40589083185E+03  0.40639293821E+03  0.25500000000E-02 0.  1.
<mgrwt>
<rscale>  0 0.40409165E+02</rscale>
<asrwt>0</asrwt>
<pdfrwt beam="1">  1        1 0.12885750E+00 0.40409165E+02</pdfrwt>
<pdfrwt beam="2">  1       -1 0.74983093E-04 0.40409165E+02</pdfrwt>
<totfact> 0.11053145E+06</totfact>
</mgrwt>
</event>
<event>
 4    1  0.1893769E-002  0.5546624E+02  0.7818608E-02  0.1417907E+00
         -1   -1    0    0  501    0 -0.00000000000E+00  0.00000000000E+00  0.54919314682E+02  0.54919314913E+02  0.50400000000E-02 0.  1.
          1   -1    0    0    0  501  0.00000000000E+00 -0.00000000000E+00 -0.14004654443E+02  0.14004655350E+02  0.50400000000E-02 0.  1.
          2    1    1    2    0  502 -0.43845514277E+01  0.26494135944E+02  0.29063155947E+02  0.39570577084E+02  0.25500000000E-02 0.  1.
         -2    1    1    2  502    0  0.43845514277E+01 -0.26494135944E+02  0.11851504292E+02  0.29353393179E+02  0.25500000000E-02 0.  1.
<mgrwt>
<rscale>  0 0.55466244E+02</rscale>
<asrwt>0</asrwt>
<pdfrwt beam="2">  1        1 0.21545623E-02 0.55466244E+02</pdfrwt>
<pdfrwt beam="1">  1       -1 0.84491255E-02 0.55466244E+02</pdfrwt>
<totfact> 0.31294162E+05</totfact>
</mgrwt>
</event>
<event>
 4    1  0.1893769E-002  0.7252461E+02  0.7818608E-02  0.1351712E+00
          1   -1    0    0    0  501  0.00000000000E+00  0.00000000000E+00  0.56285899564E+01  0.56285922129E+01  0.50400000000E-02 0.  1.
         -1   -1    0    0  501    0 -0.00000000000E+00 -0.00000000000E+00 -0.23362059083E+03  0.23362059088E+03  0.50400000000E-02 0.  1.
          2    1    1    2    0  502 -0.16022861055E+02  0.31668742184E+02 -0.89461313431E+02  0.96244313678E+02  0.25500000000E-02 0. -1.
         -2    1    1    2  502    0  0.16022861055E+02 -0.31668742184E+02 -0.13853068744E+03  0.14300486942E+03  0.25500000000E-02 0. -1.
<mgrwt>
<rscale>  0 0.72524611E+02</rscale>
<asrwt>0</asrwt>
<pdfrwt beam="1">  1        1 0.86593728E-03 0.72524611E+02</pdfrwt>
<pdfrwt beam="2">  1       -1 0.35941622E-01 0.72524611E+02</pdfrwt>
<totfact> 0.11976435E+05</totfact>
</mgrwt>
</event>
<event>
 4    1  0.1893769E-002  0.7002203E+02  0.7818608E-02  0.1360018E+00
         -1   -1    0    0  501    0 -0.00000000000E+00  0.00000000000E+00  0.58191838820E+02  0.58191839038E+02  0.50400000000E-02 0. -1.
          1   -1    0    0    0  501  0.00000000000E+00 -0.00000000000E+00 -0.21064312498E+02  0.21064313101E+02  0.50400000000E-02 0. -1.
          2    1    1    2    0  502 -0.62701386511E+01  0.25371444366E+02 -0.78054228233E+01  0.27275436933E+02  0.25500000000E-02 0. -1.
         -2    1    1    2  502    0  0.62701386511E+01 -0.25371444366E+02  0.44932949145E+02  0.51980715206E+02  0.25500000000E-02 0. -1.
<mgrwt>
<rscale>  0 0.70022028E+02</rscale>
<asrwt>0</asrwt>
<pdfrwt beam="2">  1        1 0.32406636E-02 0.70022028E+02</pdfrwt>
<pdfrwt beam="1">  1       -1 0.89525905E-02 0.70022028E+02</pdfrwt>
<totfact> 0.17355238E+05</totfact>
</mgrwt>
</event>
<event>
 4    1  0.1893769E-002  0.4759371E+02  0.7818608E-02  0.1458770E+00
         -1   -1    0    0  501    0 -0.00000000000E+00  0.00000000000E+00  0.86334901353E+00  0.86336372449E+00  0.50400000000E-02 0. -1.
          1   -1    0    0    0  501  0.00000000000E+00 -0.00000000000E+00 -0.65591725400E+03  0.65591725401E+03  0.50400000000E-02 0. -1.
          2    1    1    2    0  502  0.23593423327E+02 -0.23340404657E+01 -0.29926957008E+03  0.30020721669E+03  0.25500000000E-02 0. -1.
         -2    1    1    2  502    0 -0.23593423327E+02  0.23340404657E+01 -0.35578433490E+03  0.35657340105E+03  0.25500000000E-02 0. -1.
<mgrwt>
<rscale>  0 0.47593712E+02</rscale>
<asrwt>0</asrwt>
<pdfrwt beam="2">  1        1 0.10090995E+00 0.47593712E+02</pdfrwt>
<pdfrwt beam="1">  1       -1 0.13282458E-03 0.47593712E+02</pdfrwt>
<totfact> 0.74955497E+05</totfact>
</mgrwt>
</event>
<event>
 4    1  0.1893769E-002  0.1092314E+03  0.7818608E-02  0.1262000E+00
         -1   -1    0    0  501    0 -0.00000000000E+00  0.00000000000E+00  0.31303362383E+03  0.31303362387E+03  0.50400000000E-02 0. -1.
          1   -1    0    0    0  501  0.00000000000E+00 -0.00000000000E+00 -0.95289264604E+01  0.95289277933E+01  0.50400000000E-02 0. -1.
          2    1    1    2    0  502  0.30842212601E+02 -0.41085159942E+02  0.97010473993E+02  0.10977369683E+03  0.25500000000E-02 0. -1.
         -2    1    1    2  502    0 -0.30842212601E+02  0.41085159942E+02  0.20649422337E+03  0.21278885483E+03  0.25500000000E-02 0. -1.
<mgrwt>
<rscale>  0 0.10923140E+03</rscale>
<asrwt>0</asrwt>
<pdfrwt beam="2">  1        1 0.14659887E-02 0.10923140E+03</pdfrwt>
<pdfrwt beam="1">  1       -1 0.48159022E-01 0.10923140E+03</pdfrwt>
<totfact> 0.37022064E+04</totfact>
</mgrwt>
</event>
<event>
 4    1  0.1893769E-002  0.6046830E+02  0.7818608E-02  0.1395877E+00
         -1   -1    0    0  501    0 -0.00000000000E+00  0.00000000000E+00  0.18128910326E+02  0.18128911026E+02  0.50400000000E-02 0. -1.
          1   -1    0    0    0  501  0.00000000000E+00 -0.00000000000E+00 -0.50422440872E+02  0.50422441124E+02  0.50400000000E-02 0. -1.
          2    1    1    2    0  502  0.16422521287E+02 -0.25081898041E+02 -0.11711922417E+02  0.32186487040E+02  0.25500000000E-02 0.  1.
         -2    1    1    2  502    0 -0.16422521287E+02  0.25081898041E+02 -0.20581608130E+02  0.36364865111E+02  0.25500000000E-02 0.  1.
<mgrwt>
<rscale>  0 0.60468304E+02</rscale>
<asrwt>0</asrwt>
<pdfrwt beam="2">  1        1 0.77572986E-02 0.60468304E+02</pdfrwt>
<pdfrwt beam="1">  1       -1 0.27890632E-02 0.60468304E+02</pdfrwt>
<totfact> 0.28528176E+05</totfact>
</mgrwt>
</event>
<event>
 4    1  0.1893769E-002  0.4755142E+02  0.7818608E-02  0.1459014E+00
          1   -1    0    0    0  501  0.00000000000E+00  0.00000000000E+00  0.81751908870E+00  0.81753462433E+00  0.50400000000E-02 0.  1.
         -1   -1    0    0  501    0 -0.00000000000E+00 -0.00000000000E+00 -0.69145672986E+03  0.69145672987E+03  0.50400000000E-02 0.  1.
          2    1    1    2    0  502 -0.22054234822E+02  0.47760448369E+00 -0.21619435852E+03  0.21731686092E+03  0.25500000000E-02 0. -1.
         -2    1    1    2  502    0  0.22054234822E+02 -0.47760448369E+00 -0.47444485225E+03  0.47495740358E+03  0.25500000000E-02 0. -1.
<mgrwt>
<rscale>  0 0.47551423E+02</rscale>
<asrwt>0</asrwt>
<pdfrwt beam="1">  1        1 0.12577392E-03 0.47551423E+02</pdfrwt>
<pdfrwt beam="2">  1       -1 0.10637749E+00 0.47551423E+02</pdfrwt>
<totfact> 0.19556486E+05</totfact>
</mgrwt>
</event>
<event>
 4    1  0.1893769E-002  0.6509526E+02  0.7818608E-02  0.1377614E+00
          1   -1    0    0    0  501  0.00000000000E+00  0.00000000000E+00  0.19342878488E+03  0.19342878495E+03  0.50400000000E-02 0.  1.
         -1   -1    0    0  501    0 -0.00000000000E+00 -0.00000000000E+00 -0.54766816964E+01  0.54766840155E+01  0.50400000000E-02 0.  1.
          2    1    1    2    0  502 -0.24829672841E+02 -0.57419529572E+01  0.15583720705E+03  0.15790730757E+03  0.25500000000E-02 0. -1.
         -2    1    1    2  502    0  0.24829672841E+02  0.57419529572E+01  0.32114896138E+02  0.40998161393E+02  0.25500000000E-02 0. -1.
<mgrwt>
<rscale>  0 0.65095257E+02</rscale>
<asrwt>0</asrwt>
<pdfrwt beam="1">  1        1 0.29758273E-01 0.65095257E+02</pdfrwt>
<pdfrwt beam="2">  1       -1 0.84256665E-03 0.65095257E+02</pdfrwt>
<totfact> 0.28563139E+05</totfact>
</mgrwt>
</event>
<event>
 4    1  0.1893769E-002  0.6802965E+02  0.7818608E-02  0.1366924E+00
          1   -1    0    0    0  501  0.00000000000E+00  0.00000000000E+00  0.15455649719E+03  0.15455649727E+03  0.50400000000E-02 0.  1.
         -1   -1    0    0  501    0 -0.00000000000E+00 -0.00000000000E+00 -0.74859894461E+01  0.74859911428E+01  0.50400000000E-02 0.  1.
          2    1    1    2    0  502  0.19441209165E+02  0.19705549014E+02  0.26451170863E+02  0.38287513922E+02  0.25500000000E-02 0.  1.
         -2    1    1    2  502    0 -0.19441209165E+02 -0.19705549014E+02  0.12061933688E+03  0.12375497449E+03  0.25500000000E-02 0.  1.
<mgrwt>
<rscale>  0 0.68029654E+02</rscale>
<asrwt>0</asrwt>
<pdfrwt beam="1">  1        1 0.23777924E-01 0.68029654E+02</pdfrwt>
<pdfrwt beam="2">  1       -1 0.11516907E-02 0.68029654E+02</pdfrwt>
<totfact> 0.24494173E+05</totfact>
</mgrwt>
</event>
<event>
 4    1  0.1893769E-002  0.4211047E+02  0.7818608E-02  0.1493231E+00
         -1   -1    0    0  501    0 -0.00000000000E+00  0.00000000000E+00  0.57647204811E+00  0.57649407963E+00  0.50400000000E-02 0.  1.
          1   -1    0    0    0  501  0.00000000000E+00 -0.00000000000E+00 -0.76901277178E+03  0.76901277179E+03  0.50400000000E-02 0.  1.
          2    1    1    2    0  502 -0.64135497138E+01 -0.20018803836E+02 -0.40612372826E+03  0.40666739332E+03  0.25500000000E-02 0. -1.
         -2    1    1    2  502    0  0.64135497138E+01  0.20018803836E+02 -0.36231257147E+03  0.36292187256E+03  0.25500000000E-02 0. -1.
<mgrwt>
<rscale>  0 0.42110467E+02</rscale>
<asrwt>0</asrwt>
<pdfrwt beam="2">  1        1 0.11830884E+00 0.42110467E+02</pdfrwt>
<pdfrwt beam="1">  1       -1 0.88690319E-04 0.42110467E+02</pdfrwt>
<totfact> 0.10078086E+06</totfact>
</mgrwt>
</event>
<event>
 4    1  0.1893769E-002  0.4706422E+02  0.7818608E-02  0.1461852E+00
          1   -1    0    0    0  501  0.00000000000E+00  0.00000000000E+00  0.90353539206E+03  0.90353539208E+03  0.50400000000E-02 0.  1.
         -1   -1    0    0  501    0 -0.00000000000E+00 -0.00000000000E+00 -0.61287118240E+00  0.61289190549E+00  0.50400000000E-02 0.  1.
          2    1    1    2    0  502  0.29780102163E+01  0.22648734665E+02  0.34291269447E+03  0.34367273642E+03  0.25500000000E-02 0. -1.
         -2    1    1    2  502    0 -0.29780102163E+01 -0.22648734665E+02  0.56000982641E+03  0.56047554756E+03  0.25500000000E-02 0. -1.
<mgrwt>
<rscale>  0 0.47064219E+02</rscale>
<asrwt>0</asrwt>
<pdfrwt beam="1">  1        1 0.13900572E+00 0.47064219E+02</pdfrwt>
<pdfrwt beam="2">  1       -1 0.94289283E-04 0.47064219E+02</pdfrwt>
<totfact> 0.75348397E+05</totfact>
</mgrwt>
</event>
<event>
 4    1  0.1893769E-002  0.5326352E+02  0.7818608E-02  0.1428494E+00
          1   -1    0    0    0  501  0.00000000000E+00  0.00000000000E+00  0.18669550685E+03  0.18669550691E+03  0.50400000000E-02 0. -1.
         -1   -1    0    0  501    0 -0.00000000000E+00 -0.00000000000E+00 -0.37989676532E+01  0.37989709964E+01  0.50400000000E-02 0. -1.
          2    1    1    2    0  502 -0.11979159596E+02 -0.22959589114E+02  0.69225996633E+02  0.73911309103E+02  0.25500000000E-02 0. -1.
         -2    1    1    2  502    0  0.11979159596E+02  0.22959589114E+02  0.11367054256E+03  0.11658316881E+03  0.25500000000E-02 0. -1.
<mgrwt>
<rscale>  0 0.53263515E+02</rscale>
<asrwt>0</asrwt>
<pdfrwt beam="1">  1        1 0.28722387E-01 0.53263515E+02</pdfrwt>
<pdfrwt beam="2">  1       -1 0.58445681E-03 0.53263515E+02</pdfrwt>
<totfact> 0.47379917E+05</totfact>
</mgrwt>
</event>
<event>
 4    1  0.1893769E-002  0.5908209E+02  0.7818608E-02  0.1401725E+00
         -1   -1    0    0  501    0 -0.00000000000E+00  0.00000000000E+00  0.52681332660E+02  0.52681332901E+02  0.50400000000E-02 0. -1.
          1   -1    0    0    0  501  0.00000000000E+00 -0.00000000000E+00 -0.16565132013E+02  0.16565132780E+02  0.50400000000E-02 0. -1.
          2    1    1    2    0  502  0.16887509709E+02 -0.21101574443E+02  0.40813868222E+01  0.27333535319E+02  0.25500000000E-02 0.  1.
         -2    1    1    2  502    0 -0.16887509709E+02  0.21101574443E+02  0.32034813825E+02  0.41912930361E+02  0.25500000000E-02 0.  1.
<mgrwt>
<rscale>  0 0.59082087E+02</rscale>
<asrwt>0</asrwt>
<pdfrwt beam="2">  1        1 0.25484819E-02 0.59082087E+02</pdfrwt>
<pdfrwt beam="1">  1       -1 0.81048205E-02 0.59082087E+02</pdfrwt>
<totfact> 0.26884877E+05</totfact>
</mgrwt>
</event>
<event>
 4    1  0.1893769E-002  0.5559273E+02  0.7818608E-02  0.1417316E+00
         -1   -1    0    0  501    0 -0.00000000000E+00  0.00000000000E+00  0.37587073228E+02  0.37587073566E+02  0.50400000000E-02 0. -1.
          1   -1    0    0    0  501  0.00000000000E+00 -0.00000000000E+00 -0.20555950218E+02  0.20555950836E+02  0.50400000000E-02 0. -1.
          2    1    1    2    0  502 -0.16334696984E+02 -0.17006639506E+02 -0.68765675629E+01  0.24562884619E+02  0.25500000000E-02 0.  1.
         -2    1    1    2  502    0  0.16334696984E+02  0.17006639506E+02  0.23907690573E+02  0.33580139784E+02  0.25500000000E-02 0.  1.
<mgrwt>
<rscale>  0 0.55592735E+02</rscale>
<asrwt>0</asrwt>
<pdfrwt beam="2">  1        1 0.31624540E-02 0.55592735E+02</pdfrwt>
<pdfrwt beam="1">  1       -1 0.57826267E-02 0.55592735E+02</pdfrwt>
<totfact> 0.32455420E+05</totfact>
</mgrwt>
</event>
<event>
 4    1  0.1893769E-002  0.4340226E+02  0.7818608E-02  0.1484570E+00
         -1   -1    0    0  501    0 -0.00000000000E+00  0.00000000000E+00  0.31898327647E+02  0.31898328045E+02  0.50400000000E-02 0.  1.
          1   -1    0    0    0  501  0.00000000000E+00 -0.00000000000E+00 -0.14763752697E+02  0.14763753558E+02  0.50400000000E-02 0.  1.
          2    1    1    2    0  502 -0.18529301800E+02  0.10909130469E+02  0.54153909884E+01  0.22173646945E+02  0.25500000000E-02 0. -1.
         -2    1    1    2  502    0  0.18529301800E+02 -0.10909130469E+02  0.11719183961E+02  0.24488434658E+02  0.25500000000E-02 0. -1.
<mgrwt>
<rscale>  0 0.43402260E+02</rscale>
<asrwt>0</asrwt>
<pdfrwt beam="2">  1        1 0.22713466E-02 0.43402260E+02</pdfrwt>
<pdfrwt beam="1">  1       -1 0.49074352E-02 0.43402260E+02</pdfrwt>
<totfact> 0.60294004E+05</totfact>
</mgrwt>
</event>
<event>
 4    1  0.1893769E-002  0.6928221E+02  0.7818608E-02  0.1362551E+00
          1   -1    0    0    0  501  0.00000000000E+00  0.00000000000E+00  0.85706668856E+03  0.85706668858E+03  0.50400000000E-02 0. -1.
         -1   -1    0    0  501    0 -0.00000000000E+00 -0.00000000000E+00 -0.14001271967E+01  0.14001362678E+01  0.50400000000E-02 0. -1.
          2    1    1    2    0  502 -0.86020736910E+01 -0.33552755733E+02  0.43368702475E+03  0.43506806195E+03  0.25500000000E-02 0.  1.
         -2    1    1    2  502    0  0.86020736910E+01  0.33552755733E+02  0.42197953662E+03  0.42339876290E+03  0.25500000000E-02 0.  1.
<mgrwt>
<rscale>  0 0.69282214E+02</rscale>
<asrwt>0</asrwt>
<pdfrwt beam="1">  1        1 0.13185669E+00 0.69282214E+02</pdfrwt>
<pdfrwt beam="2">  1       -1 0.21540443E-03 0.69282214E+02</pdfrwt>
<totfact> 0.28697902E+05</totfact>
</mgrwt>
</event>
<event>
 4    1  0.1893769E-002  0.4420208E+02  0.7818608E-02  0.1479385E+00
         -1   -1    0    0  501    0 -0.00000000000E+00  0.00000000000E+00  0.24357750619E+01  0.24357802762E+01  0.50400000000E-02 0. -1.
          1   -1    0    0    0  501  0.00000000000E+00 -0.00000000000E+00 -0.20053388866E+03  0.20053388873E+03  0.50400000000E-02 0. -1.
          2    1    1    2    0  502 -0.93881635216E+01 -0.18769583637E+02 -0.67228744424E+02  0.70428254043E+02  0.25500000000E-02 0. -1.
         -2    1    1    2  502    0  0.93881635216E+01  0.18769583637E+02 -0.13086936918E+03  0.13254141496E+03  0.25500000000E-02 0. -1.
<mgrwt>
<rscale>  0 0.44202081E+02</rscale>
<asrwt>0</asrwt>
<pdfrwt beam="2">  1        1 0.30851355E-01 0.44202081E+02</pdfrwt>
<pdfrwt beam="1">  1       -1 0.37473519E-03 0.44202081E+02</pdfrwt>
<totfact> 0.76384538E+05</totfact>
</mgrwt>
</event>
<event>
 4    1  0.1893769E-002  0.5143510E+02  0.7818608E-02  0.1437751E+00
          1   -1    0    0    0  501  0.00000000000E+00  0.00000000000E+00  0.12136334825E+03  0.12136334835E+03  0.50400000000E-02 0. -1.
         -1   -1    0    0  501    0 -0.00000000000E+00 -0.00000000000E+00 -0.54496866672E+01  0.54496889978E+01  0.50400000000E-02 0. -1.
          2    1    1    2    0  502 -0.21570920275E+02 -0.49075438200E+01  0.25621797404E+02  0.33850629190E+02  0.25500000000E-02 0.  1.
         -2    1    1    2  502    0  0.21570920275E+02  0.49075438200E+01  0.90291864176E+02  0.92962408159E+02  0.25500000000E-02 0.  1.
<mgrwt>
<rscale>  0 0.51435100E+02</rscale>
<asrwt>0</asrwt>
<pdfrwt beam="1">  1        1 0.18671283E-01 0.51435100E+02</pdfrwt>
<pdfrwt beam="2">  1       -1 0.83841360E-03 0.51435100E+02</pdfrwt>
<totfact> 0.48305878E+05</totfact>
</mgrwt>
</event>
<event>
 4    1  0.1893769E-002  0.4394797E+02  0.7818608E-02  0.1481018E+00
         -1   -1    0    0  501    0 -0.00000000000E+00  0.00000000000E+00  0.61780477898E+02  0.61780478103E+02  0.50400000000E-02 0.  1.
          1   -1    0    0    0  501  0.00000000000E+00 -0.00000000000E+00 -0.78156727843E+01  0.78156744093E+01  0.50400000000E-02 0.  1.
          2    1    1    2    0  502  0.20186789094E+02 -0.14530397849E+01  0.13430026188E+02  0.24289573657E+02  0.25500000000E-02 0. -1.
         -2    1    1    2  502    0 -0.20186789094E+02  0.14530397849E+01  0.40534778926E+02  0.45306578856E+02  0.25500000000E-02 0. -1.
<mgrwt>
<rscale>  0 0.43947972E+02</rscale>
<asrwt>0</asrwt>
<pdfrwt beam="2">  1        1 0.12024114E-02 0.43947972E+02</pdfrwt>
<pdfrwt beam="1">  1       -1 0.95046889E-02 0.43947972E+02</pdfrwt>
<totfact> 0.54694995E+05</totfact>
</mgrwt>
</event>
<event>
 4    1  0.1893769E-002  0.6355932E+02  0.7818608E-02  0.1383474E+00
         -1   -1    0    0  501    0 -0.00000000000E+00  0.00000000000E+00  0.73501354093E+00  0.73503082041E+00  0.50400000000E-02 0. -1.
          1   -1    0    0    0  501  0.00000000000E+00 -0.00000000000E+00 -0.13740359291E+04  0.13740359291E+04  0.50400000000E-02 0. -1.
          2    1    1    2    0  502  0.29700825465E+02 -0.98918719631E+01 -0.80503984175E+03  0.80564827001E+03  0.25500000000E-02 0.  1.
         -2    1    1    2  502    0 -0.29700825465E+02  0.98918719631E+01 -0.56826107377E+03  0.56912268988E+03  0.25500000000E-02 0.  1.
<mgrwt>
<rscale>  0 0.63559323E+02</rscale>
<asrwt>0</asrwt>
<pdfrwt beam="2">  1        1 0.21138809E+00 0.63559323E+02</pdfrwt>
<pdfrwt beam="1">  1       -1 0.11308144E-03 0.63559323E+02</pdfrwt>
<totfact> 0.30133556E+05</totfact>
</mgrwt>
</event>
<event>
 4    1  0.1893769E-002  0.8790257E+02  0.7818608E-02  0.1308012E+00
          1   -1    0    0    0  501  0.00000000000E+00  0.00000000000E+00  0.75963034419E+01  0.75963051138E+01  0.50400000000E-02 0. -1.
         -1   -1    0    0  501    0 -0.00000000000E+00 -0.00000000000E+00 -0.25429672128E+03  0.25429672133E+03  0.50400000000E-02 0. -1.
          2    1    1    2    0  502  0.14269177988E+02 -0.24956221177E+02 -0.22240171044E+03  0.22425196371E+03  0.25500000000E-02 0.  1.
         -2    1    1    2  502    0 -0.14269177988E+02  0.24956221177E+02 -0.24298707402E+02  0.37641062735E+02  0.25500000000E-02 0.  1.
<mgrwt>
<rscale>  0 0.87902566E+02</rscale>
<asrwt>0</asrwt>
<pdfrwt beam="1">  1        1 0.11686624E-02 0.87902566E+02</pdfrwt>
<pdfrwt beam="2">  1       -1 0.39122566E-01 0.87902566E+02</pdfrwt>
<totfact> 0.70830519E+04</totfact>
</mgrwt>
</event>
<event>
 4    1  0.1893769E-002  0.6536937E+02  0.7818608E-02  0.1376587E+00
         -1   -1    0    0  501    0 -0.00000000000E+00  0.00000000000E+00  0.42961542223E+01  0.42961571786E+01  0.50400000000E-02 0. -1.
          1   -1    0    0    0  501  0.00000000000E+00 -0.00000000000E+00 -0.24866154653E+03  0.24866154658E+03  0.50400000000E-02 0. -1.
          2    1    1    2    0  502 -0.23761399444E+02 -0.17306105944E+02 -0.17747742358E+03  0.17989536206E+03  0.25500000000E-02 0. -1.
         -2    1    1    2  502    0  0.23761399444E+02  0.17306105944E+02 -0.66887968732E+02  0.73062341696E+02  0.25500000000E-02 0. -1.
<mgrwt>
<rscale>  0 0.65369373E+02</rscale>
<asrwt>0</asrwt>
<pdfrwt beam="2">  1        1 0.38255612E-01 0.65369373E+02</pdfrwt>
<pdfrwt beam="1">  1       -1 0.66094723E-03 0.65369373E+02</pdfrwt>
<totfact> 0.29577728E+05</totfact>
</mgrwt>
</event>
<event>
 4    1  0.1893769E-002  0.5085338E+02  0.7818608E-02  0.1440792E+00
         -1   -1    0    0  501    0 -0.00000000000E+00  0.00000000000E+00  0.33686413491E+01  0.33686451194E+01  0.50400000000E-02 0. -1.
          1   -1    0    0    0  501  0.00000000000E+00 -0.00000000000E+00 -0.19192193839E+03  0.19192193845E+03  0.50400000000E-02 0. -1.
          2    1    1    2    0  502  0.12202935568E+02 -0.20571102090E+02 -0.61144537272E+02  0.65656197898E+02  0.25500000000E-02 0. -1.
         -2    1    1    2  502    0 -0.12202935568E+02  0.20571102090E+02 -0.12740875977E+03  0.12963438568E+03  0.25500000000E-02 0. -1.
<mgrwt>
<rscale>  0 0.50853380E+02</rscale>
<asrwt>0</asrwt>
<pdfrwt beam="2">  1        1 0.29526444E-01 0.50853380E+02</pdfrwt>
<pdfrwt beam="1">  1       -1 0.51825296E-03 0.50853380E+02</pdfrwt>
<totfact> 0.53491483E+05</totfact>
</mgrwt>
</event>
<event>
 4    1  0.1893769E-002  0.9904881E+02  0.7818608E-02  0.1282309E+00
          1   -1    0    0    0  501  0.00000000000E+00  0.00000000000E+00  0.29852908792E+03  0.29852908796E+03  0.50400000000E-02 0.  1.
         -1   -1    0    0  501    0 -0.00000000000E+00 -0.00000000000E+00 -0.82158373955E+01  0.82158389413E+01  0.50400000000E-02 0.  1.
          2    1    1    2    0  502  0.40522104681E+02  0.80208714233E+01  0.60554294746E+02  0.73302100685E+02  0.25500000000E-02 0.  1.
         -2    1    1    2  502    0 -0.40522104681E+02 -0.80208714233E+01  0.22975895578E+03  0.23344282622E+03  0.25500000000E-02 0.  1.
<mgrwt>
<rscale>  0 0.99048810E+02</rscale>
<asrwt>0</asrwt>
<pdfrwt beam="1">  1        1 0.45927562E-01 0.99048810E+02</pdfrwt>
<pdfrwt beam="2">  1       -1 0.12639748E-02 0.99048810E+02</pdfrwt>
<totfact> 0.10254761E+05</totfact>
</mgrwt>
</event>
<event>
 4    1  0.1893769E-002  0.1282642E+03  0.7818608E-02  0.1230054E+00
         -1   -1    0    0  501    0 -0.00000000000E+00  0.00000000000E+00  0.83237897962E+03  0.83237897963E+03  0.50400000000E-02 0.  1.
          1   -1    0    0    0  501  0.00000000000E+00 -0.00000000000E+00 -0.49411698097E+01  0.49411723801E+01  0.50400000000E-02 0.  1.
          2    1    1    2    0  502  0.48631499811E+02  0.24523100858E+02  0.19267568892E+03  0.20022568855E+03  0.25500000000E-02 0. -1.
         -2    1    1    2  502    0 -0.48631499811E+02 -0.24523100858E+02  0.63476212089E+03  0.63709446346E+03  0.25500000000E-02 0. -1.
<mgrwt>
<rscale>  0 0.12826421E+03</rscale>
<asrwt>0</asrwt>
<pdfrwt beam="2">  1        1 0.76018078E-03 0.12826421E+03</pdfrwt>
<pdfrwt beam="1">  1       -1 0.12805820E+00 0.12826421E+03</pdfrwt>
<totfact> 0.12648351E+04</totfact>
</mgrwt>
</event>
<event>
 4    1  0.1893769E-002  0.5860730E+02  0.7818608E-02  0.1403771E+00
          1   -1    0    0    0  501  0.00000000000E+00  0.00000000000E+00  0.28046677956E+01  0.28046723241E+01  0.50400000000E-02 0. -1.
         -1   -1    0    0  501    0 -0.00000000000E+00 -0.00000000000E+00 -0.30616933555E+03  0.30616933559E+03  0.50400000000E-02 0. -1.
          2    1    1    2    0  502  0.16871141640E+02  0.14888126160E+02 -0.52714124387E+02  0.57315535740E+02  0.25500000000E-02 0. -1.
         -2    1    1    2  502    0 -0.16871141640E+02 -0.14888126160E+02 -0.25065054337E+03  0.25165847218E+03  0.25500000000E-02 0. -1.
<mgrwt>
<rscale>  0 0.58607303E+02</rscale>
<asrwt>0</asrwt>
<pdfrwt beam="1">  1        1 0.43148795E-03 0.58607303E+02</pdfrwt>
<pdfrwt beam="2">  1       -1 0.47102949E-01 0.58607303E+02</pdfrwt>
<totfact> 0.18709325E+05</totfact>
</mgrwt>
</event>
<event>
 4    1  0.1893769E-002  0.4210403E+02  0.7818608E-02  0.1493275E+00
          1   -1    0    0    0  501  0.00000000000E+00  0.00000000000E+00  0.22860386379E+02  0.22860386934E+02  0.50400000000E-02 0. -1.
         -1   -1    0    0  501    0 -0.00000000000E+00 -0.00000000000E+00 -0.19386693630E+02  0.19386694285E+02  0.50400000000E-02 0. -1.
          2    1    1    2    0  502 -0.74914164115E+01 -0.19305032552E+02  0.55420554643E+01  0.21436417307E+02  0.25500000000E-02 0. -1.
         -2    1    1    2  502    0  0.74914164115E+01  0.19305032552E+02 -0.20683627160E+01  0.20810663913E+02  0.25500000000E-02 0. -1.
<mgrwt>
<rscale>  0 0.42104030E+02</rscale>
<asrwt>0</asrwt>
<pdfrwt beam="1">  1        1 0.35169826E-02 0.42104030E+02</pdfrwt>
<pdfrwt beam="2">  1       -1 0.29825684E-02 0.42104030E+02</pdfrwt>
<totfact> 0.67516998E+05</totfact>
</mgrwt>
</event>
<event>
 4    1  0.1893769E-002  0.5934570E+02  0.7818608E-02  0.1400598E+00
          1   -1    0    0    0  501  0.00000000000E+00  0.00000000000E+00  0.14645967137E+02  0.14645968004E+02  0.50400000000E-02 0. -1.
         -1   -1    0    0  501    0 -0.00000000000E+00 -0.00000000000E+00 -0.60117438989E+02  0.60117439200E+02  0.50400000000E-02 0. -1.
          2    1    1    2    0  502 -0.12432378646E+02  0.16700228843E+02  0.38998060786E+01  0.21181835996E+02  0.25500000000E-02 0. -1.
         -2    1    1    2  502    0  0.12432378646E+02 -0.16700228843E+02 -0.49371277930E+02  0.53581571209E+02  0.25500000000E-02 0. -1.
<mgrwt>
<rscale>  0 0.59345702E+02</rscale>
<asrwt>0</asrwt>
<pdfrwt beam="1">  1        1 0.22532258E-02 0.59345702E+02</pdfrwt>
<pdfrwt beam="2">  1       -1 0.92488367E-02 0.59345702E+02</pdfrwt>
<totfact> 0.26158327E+05</totfact>
</mgrwt>
</event>
<event>
 4    1  0.1893769E-002  0.4295700E+02  0.7818608E-02  0.1487514E+00
         -1   -1    0    0  501    0 -0.00000000000E+00  0.00000000000E+00  0.12029010985E+01  0.12029116570E+01  0.50400000000E-02 0. -1.
          1   -1    0    0    0  501  0.00000000000E+00 -0.00000000000E+00 -0.38350940950E+03  0.38350940953E+03  0.50400000000E-02 0. -1.
          2    1    1    2    0  502  0.11886509224E+01 -0.20002419503E+02 -0.26041791907E+03  0.26118767631E+03  0.25500000000E-02 0.  1.
         -2    1    1    2  502    0 -0.11886509224E+01  0.20002419503E+02 -0.12188858933E+03  0.12352464488E+03  0.25500000000E-02 0.  1.
<mgrwt>
<rscale>  0 0.42956998E+02</rscale>
<asrwt>0</asrwt>
<pdfrwt beam="2">  1        1 0.59001351E-01 0.42956998E+02</pdfrwt>
<pdfrwt beam="1">  1       -1 0.18506283E-03 0.42956998E+02</pdfrwt>
<totfact> 0.91411690E+05</totfact>
</mgrwt>
</event>
<event>
 4    1  0.1893769E-002  0.4764043E+02  0.7818608E-02  0.1458500E+00
         -1   -1    0    0  501    0 -0.00000000000E+00  0.00000000000E+00  0.45999919389E+01  0.45999946999E+01  0.50400000000E-02 0.  1.
          1   -1    0    0    0  501  0.00000000000E+00 -0.00000000000E+00 -0.12334860266E+03  0.12334860277E+03  0.50400000000E-02 0.  1.
          2    1    1    2    0  502  0.18154445249E+02 -0.92383396274E+01 -0.26211230331E+02  0.33195773878E+02  0.25500000000E-02 0. -1.
         -2    1    1    2  502    0 -0.18154445249E+02  0.92383396274E+01 -0.92537380395E+02  0.94752823590E+02  0.25500000000E-02 0. -1.
<mgrwt>
<rscale>  0 0.47640435E+02</rscale>
<asrwt>0</asrwt>
<pdfrwt beam="2">  1        1 0.18976706E-01 0.47640435E+02</pdfrwt>
<pdfrwt beam="1">  1       -1 0.70769138E-03 0.47640435E+02</pdfrwt>
<totfact> 0.58706795E+05</totfact>
</mgrwt>
</event>
<event>
 4    1  0.1893769E-002  0.5298839E+02  0.7818608E-02  0.1429859E+00
         -1   -1    0    0  501    0 -0.00000000000E+00  0.00000000000E+00  0.59243698065E+00  0.59245841849E+00  0.50400000000E-02 0. -1.
          1   -1    0    0    0  501  0.00000000000E+00 -0.00000000000E+00 -0.11848172098E+04  0.11848172099E+04  0.50400000000E-02 0. -1.
          2    1    1    2    0  502  0.18830140381E+02  0.18607949408E+02 -0.61570590045E+03  0.61627476488E+03  0.25500000000E-02 0. -1.
         -2    1    1    2  502    0 -0.18830140381E+02 -0.18607949408E+02 -0.56851887241E+03  0.56913490340E+03  0.25500000000E-02 0. -1.
<mgrwt>
<rscale>  0 0.52988385E+02</rscale>
<asrwt>0</asrwt>
<pdfrwt beam="2">  1        1 0.18227768E+00 0.52988385E+02</pdfrwt>
<pdfrwt beam="1">  1       -1 0.91146749E-04 0.52988385E+02</pdfrwt>
<totfact> 0.51755508E+05</totfact>
</mgrwt>
</event>
<event>
 4    1  0.1893769E-002  0.4478746E+02  0.7818608E-02  0.1475673E+00
          1   -1    0    0    0  501  0.00000000000E+00  0.00000000000E+00  0.31067783545E+01  0.31067824426E+01  0.50400000000E-02 0. -1.
         -1   -1    0    0  501    0 -0.00000000000E+00 -0.00000000000E+00 -0.16141440467E+03  0.16141440475E+03  0.50400000000E-02 0. -1.
          2    1    1    2    0  502  0.21564000334E+02 -0.90242562735E+00 -0.57218302346E+02  0.61153533113E+02  0.25500000000E-02 0.  1.
         -2    1    1    2  502    0 -0.21564000334E+02  0.90242562735E+00 -0.10108932397E+03  0.10336765408E+03  0.25500000000E-02 0.  1.
<mgrwt>
<rscale>  0 0.44787459E+02</rscale>
<asrwt>0</asrwt>
<pdfrwt beam="1">  1        1 0.47796635E-03 0.44787459E+02</pdfrwt>
<pdfrwt beam="2">  1       -1 0.24832979E-01 0.44787459E+02</pdfrwt>
<totfact> 0.44407714E+05</totfact>
</mgrwt>
</event>
<event>
 4    1  0.1893769E-002  0.9258680E+02  0.7818608E-02  0.1296706E+00
         -1   -1    0    0  501    0 -0.00000000000E+00  0.00000000000E+00  0.28056497997E+01  0.28056543266E+01  0.50400000000E-02 0.  1.
          1   -1    0    0    0  501  0.00000000000E+00 -0.00000000000E+00 -0.76384340862E+03  0.76384340864E+03  0.50400000000E-02 0.  1.
          2    1    1    2    0  502 -0.27675194149E+02 -0.62362661015E+01 -0.77604670100E+02  0.82627430155E+02  0.25500000000E-02 0. -1.
         -2    1    1    2  502    0  0.27675194149E+02  0.62362661015E+01 -0.68343308872E+03  0.68402163281E+03  0.25500000000E-02 0. -1.
<mgrwt>
<rscale>  0 0.92586799E+02</rscale>
<asrwt>0</asrwt>
<pdfrwt beam="2">  1        1 0.11751420E+00 0.92586799E+02</pdfrwt>
<pdfrwt beam="1">  1       -1 0.43163939E-03 0.92586799E+02</pdfrwt>
<totfact> 0.13613077E+05</totfact>
</mgrwt>
</event>
<event>
 4    1  0.1893769E-002  0.5864448E+02  0.7818608E-02  0.1403610E+00
          1   -1    0    0    0  501  0.00000000000E+00  0.00000000000E+00  0.33574058997E+03  0.33574059000E+03  0.50400000000E-02 0.  1.
         -1   -1    0    0  501    0 -0.00000000000E+00 -0.00000000000E+00 -0.25608848555E+01  0.25608898150E+01  0.50400000000E-02 0.  1.
          2    1    1    2    0  502  0.21263045323E+02  0.63456377097E+01  0.56016112983E+02  0.60251050900E+02  0.25500000000E-02 0.  1.
         -2    1    1    2  502    0 -0.21263045323E+02 -0.63456377097E+01  0.27716359213E+03  0.27805042892E+03  0.25500000000E-02 0.  1.
<mgrwt>
<rscale>  0 0.58644483E+02</rscale>
<asrwt>0</asrwt>
<pdfrwt beam="1">  1        1 0.51652406E-01 0.58644483E+02</pdfrwt>
<pdfrwt beam="2">  1       -1 0.39398261E-03 0.58644483E+02</pdfrwt>
<totfact> 0.41204911E+05</totfact>
</mgrwt>
</event>
<event>
 4    1  0.1893769E-002  0.4259865E+02  0.7818608E-02  0.1489915E+00
         -1   -1    0    0  501    0 -0.00000000000E+00  0.00000000000E+00  0.13982593320E+03  0.13982593329E+03  0.50400000000E-02 0. -1.
          1   -1    0    0    0  501  0.00000000000E+00 -0.00000000000E+00 -0.32444699035E+01  0.32444738181E+01  0.50400000000E-02 0. -1.
          2    1    1    2    0  502 -0.15653954615E+02 -0.13021732565E+02  0.89278278044E+02  0.91570861910E+02  0.25500000000E-02 0. -1.
         -2    1    1    2  502    0  0.15653954615E+02  0.13021732565E+02  0.47303185248E+02  0.51499545194E+02  0.25500000000E-02 0. -1.
<mgrwt>
<rscale>  0 0.42598653E+02</rscale>
<asrwt>0</asrwt>
<pdfrwt beam="2">  1        1 0.49914954E-03 0.42598653E+02</pdfrwt>
<pdfrwt beam="1">  1       -1 0.21511682E-01 0.42598653E+02</pdfrwt>
<totfact> 0.51814026E+05</totfact>
</mgrwt>
</event>
<event>
 4    1  0.1893769E-002  0.4447318E+02  0.7818608E-02  0.1477658E+00
          1   -1    0    0    0  501  0.00000000000E+00  0.00000000000E+00  0.97232871731E+03  0.97232871732E+03  0.50400000000E-02 0. -1.
         -1   -1    0    0  501    0 -0.00000000000E+00 -0.00000000000E+00 -0.50852531707E+00  0.50855029220E+00  0.50400000000E-02 0. -1.
          2    1    1    2    0  502  0.21766102347E+02 -0.43113108447E+01  0.51772484554E+03  0.51820012187E+03  0.25500000000E-02 0. -1.
         -2    1    1    2  502    0 -0.21766102347E+02  0.43113108447E+01  0.45409534645E+03  0.45463714574E+03  0.25500000000E-02 0. -1.
<mgrwt>
<rscale>  0 0.44473180E+02</rscale>
<asrwt>0</asrwt>
<pdfrwt beam="1">  1        1 0.14958945E+00 0.44473180E+02</pdfrwt>
<pdfrwt beam="2">  1       -1 0.78236368E-04 0.44473180E+02</pdfrwt>
<totfact> 0.85301810E+05</totfact>
</mgrwt>
</event>
<event>
 4    1  0.1893769E-002  0.4115800E+02  0.7818608E-02  0.1499859E+00
          1   -1    0    0    0  501  0.00000000000E+00  0.00000000000E+00  0.19728684417E+02  0.19728685061E+02  0.50400000000E-02 0.  1.
         -1   -1    0    0  501    0 -0.00000000000E+00 -0.00000000000E+00 -0.21465964733E+02  0.21465965325E+02  0.50400000000E-02 0.  1.
          2    1    1    2    0  502  0.74923656404E+01 -0.19128116556E+02 -0.20841667003E+01  0.20648586954E+02  0.25500000000E-02 0. -1.
         -2    1    1    2  502    0 -0.74923656404E+01  0.19128116556E+02  0.34688638475E+00  0.20546063432E+02  0.25500000000E-02 0. -1.
<mgrwt>
<rscale>  0 0.41158001E+02</rscale>
<asrwt>0</asrwt>
<pdfrwt beam="1">  1        1 0.30351823E-02 0.41158001E+02</pdfrwt>
<pdfrwt beam="2">  1       -1 0.33024562E-02 0.41158001E+02</pdfrwt>
<totfact> 0.70717937E+05</totfact>
</mgrwt>
</event>
<event>
 4    1  0.1893769E-002  0.4760183E+02  0.7818608E-02  0.1458723E+00
          1   -1    0    0    0  501  0.00000000000E+00  0.00000000000E+00  0.58180225032E+01  0.58180246862E+01  0.50400000000E-02 0. -1.
         -1   -1    0    0  501    0 -0.00000000000E+00 -0.00000000000E+00 -0.97367010966E+02  0.97367011096E+02  0.50400000000E-02 0. -1.
          2    1    1    2    0  502 -0.15486819048E+02  0.17691064650E+02 -0.53788494911E+02  0.58702789746E+02  0.25500000000E-02 0.  1.
         -2    1    1    2  502    0  0.15486819048E+02 -0.17691064650E+02 -0.37760493551E+02  0.44482246036E+02  0.25500000000E-02 0.  1.
<mgrwt>
<rscale>  0 0.47601831E+02</rscale>
<asrwt>0</asrwt>
<pdfrwt beam="1">  1        1 0.89508064E-03 0.47601831E+02</pdfrwt>
<pdfrwt beam="2">  1       -1 0.14979539E-01 0.47601831E+02</pdfrwt>
<totfact> 0.42201357E+05</totfact>
</mgrwt>
</event>
<event>
 4    1  0.1893769E-002  0.1169032E+03  0.7818608E-02  0.1248295E+00
          1   -1    0    0    0  501  0.00000000000E+00  0.00000000000E+00  0.49754219391E+03  0.49754219394E+03  0.50400000000E-02 0.  1.
         -1   -1    0    0  501    0 -0.00000000000E+00 -0.00000000000E+00 -0.68669309827E+01  0.68669328323E+01  0.50400000000E-02 0.  1.
          2    1    1    2    0  502 -0.68528281826E+01  0.35858413135E+02  0.44230068374E+03  0.44380477903E+03  0.25500000000E-02 0. -1.
         -2    1    1    2  502    0  0.68528281826E+01 -0.35858413135E+02  0.48374579186E+02  0.60604347737E+02  0.25500000000E-02 0. -1.
<mgrwt>
<rscale>  0 0.11690318E+03</rscale>
<asrwt>0</asrwt>
<pdfrwt beam="1">  1        1 0.76544941E-01 0.11690318E+03</pdfrwt>
<pdfrwt beam="2">  1       -1 0.10564512E-02 0.11690318E+03</pdfrwt>
<totfact> 0.71445153E+04</totfact>
</mgrwt>
</event>
<event>
 4    1  0.1893769E-002  0.4815485E+02  0.7818608E-02  0.1455556E+00
          1   -1    0    0    0  501  0.00000000000E+00  0.00000000000E+00  0.23709500774E+02  0.23709501309E+02  0.50400000000E-02 0.  1.
         -1   -1    0    0  501    0 -0.00000000000E+00 -0.00000000000E+00 -0.24451061373E+02  0.24451061892E+02  0.50400000000E-02 0.  1.
          2    1    1    2    0  502 -0.39950977981E+01 -0.22519878019E+02 -0.78960837089E+01  0.24196153761E+02  0.25500000000E-02 0. -1.
         -2    1    1    2  502    0  0.39950977981E+01  0.22519878019E+02  0.71545231099E+01  0.23964409440E+02  0.25500000000E-02 0. -1.
<mgrwt>
<rscale>  0 0.48154854E+02</rscale>
<asrwt>0</asrwt>
<pdfrwt beam="1">  1        1 0.36476156E-02 0.48154854E+02</pdfrwt>
<pdfrwt beam="2">  1       -1 0.37617018E-02 0.48154854E+02</pdfrwt>
<totfact> 0.47993620E+05</totfact>
</mgrwt>
</event>
<event>
 4    1  0.1893769E-002  0.5914593E+02  0.7818608E-02  0.1401451E+00
          1   -1    0    0    0  501  0.00000000000E+00  0.00000000000E+00  0.61031131473E+02  0.61031131681E+02  0.50400000000E-02 0.  1.
         -1   -1    0    0  501    0 -0.00000000000E+00 -0.00000000000E+00 -0.14329738772E+02  0.14329739658E+02  0.50400000000E-02 0.  1.
          2    1    1    2    0  502 -0.10759802272E+00  0.29482438062E+02  0.20407854860E+02  0.35856746616E+02  0.25500000000E-02 0.  1.
         -2    1    1    2  502    0  0.10759802272E+00 -0.29482438062E+02  0.26293537841E+02  0.39504124723E+02  0.25500000000E-02 0.  1.
<mgrwt>
<rscale>  0 0.59145928E+02</rscale>
<asrwt>0</asrwt>
<pdfrwt beam="1">  1        1 0.93894050E-02 0.59145928E+02</pdfrwt>
<pdfrwt beam="2">  1       -1 0.22045753E-02 0.59145928E+02</pdfrwt>
<totfact> 0.30885664E+05</totfact>
</mgrwt>
</event>
<event>
 4    1  0.1893769E-002  0.5360645E+02  0.7818608E-02  0.1426806E+00
          1   -1    0    0    0  501  0.00000000000E+00  0.00000000000E+00  0.61814903794E+01  0.61814924340E+01  0.50400000000E-02 0.  1.
         -1   -1    0    0  501    0 -0.00000000000E+00 -0.00000000000E+00 -0.11621998035E+03  0.11621998046E+03  0.50400000000E-02 0.  1.
          2    1    1    2    0  502  0.25656898188E+02 -0.29290042934E-01 -0.72725845773E+02  0.77118907749E+02  0.25500000000E-02 0.  1.
         -2    1    1    2  502    0 -0.25656898188E+02  0.29290042934E-01 -0.37312644201E+02  0.45282565148E+02  0.25500000000E-02 0.  1.
<mgrwt>
<rscale>  0 0.53606448E+02</rscale>
<asrwt>0</asrwt>
<pdfrwt beam="1">  1        1 0.95099877E-03 0.53606448E+02</pdfrwt>
<pdfrwt beam="2">  1       -1 0.17879996E-01 0.53606448E+02</pdfrwt>
<totfact> 0.30497888E+05</totfact>
</mgrwt>
</event>
<event>
 4    1  0.1893769E-002  0.4087462E+02  0.7818608E-02  0.1501872E+00
          1   -1    0    0    0  501  0.00000000000E+00  0.00000000000E+00  0.33268920643E+02  0.33268921025E+02  0.50400000000E-02 0.  1.
         -1   -1    0    0  501    0 -0.00000000000E+00 -0.00000000000E+00 -0.12554769131E+02  0.12554770143E+02  0.50400000000E-02 0.  1.
          2    1    1    2    0  502 -0.10193430055E+02 -0.17709226134E+02  0.10806818298E+02  0.23115147302E+02  0.25500000000E-02 0.  1.
         -2    1    1    2  502    0  0.10193430055E+02  0.17709226134E+02  0.99073332145E+01  0.22708543866E+02  0.25500000000E-02 0.  1.
<mgrwt>
<rscale>  0 0.40874620E+02</rscale>
<asrwt>0</asrwt>
<pdfrwt beam="1">  1        1 0.51182956E-02 0.40874620E+02</pdfrwt>
<pdfrwt beam="2">  1       -1 0.19315031E-02 0.40874620E+02</pdfrwt>
<totfact> 0.74865500E+05</totfact>
</mgrwt>
</event>
<event>
 4    1  0.1893769E-002  0.6375021E+02  0.7818608E-02  0.1382735E+00
          1   -1    0    0    0  501  0.00000000000E+00  0.00000000000E+00  0.57432232935E+03  0.57432232938E+03  0.50400000000E-02 0. -1.
         -1   -1    0    0  501    0 -0.00000000000E+00 -0.00000000000E+00 -0.17690767759E+01  0.17690839553E+01  0.50400000000E-02 0. -1.
          2    1    1    2    0  502  0.56776546852E+01 -0.29634946314E+02  0.19343293916E+03  0.19577223440E+03  0.25500000000E-02 0. -1.
         -2    1    1    2  502    0 -0.56776546852E+01  0.29634946314E+02  0.37912031342E+03  0.38031917893E+03  0.25500000000E-02 0. -1.
<mgrwt>
<rscale>  0 0.63750212E+02</rscale>
<asrwt>0</asrwt>
<pdfrwt beam="1">  1        1 0.88357331E-01 0.63750212E+02</pdfrwt>
<pdfrwt beam="2">  1       -1 0.27216606E-03 0.63750212E+02</pdfrwt>
<totfact> 0.35791210E+05</totfact>
</mgrwt>
</event>
<event>
 4    1  0.1893769E-002  0.4235988E+02  0.7818608E-02  0.1491530E+00
          1   -1    0    0    0  501  0.00000000000E+00  0.00000000000E+00  0.10584751845E+04  0.10584751845E+04  0.50400000000E-02 0. -1.
         -1   -1    0    0  501    0 -0.00000000000E+00 -0.00000000000E+00 -0.42379254943E+00  0.42382251775E+00  0.50400000000E-02 0. -1.
          2    1    1    2    0  502 -0.11519085481E+02  0.17696371894E+02  0.48765580436E+03  0.48811272719E+03  0.25500000000E-02 0. -1.
         -2    1    1    2  502    0  0.11519085481E+02 -0.17696371894E+02  0.57039558761E+03  0.57078627987E+03  0.25500000000E-02 0. -1.
<mgrwt>
<rscale>  0 0.42359876E+02</rscale>
<asrwt>0</asrwt>
<pdfrwt beam="1">  1        1 0.16284004E+00 0.42359876E+02</pdfrwt>
<pdfrwt beam="2">  1       -1 0.65202080E-04 0.42359876E+02</pdfrwt>
<totfact> 0.93868453E+05</totfact>
</mgrwt>
</event>
<event>
 4    1  0.1893769E-002  0.5132551E+02  0.7818608E-02  0.1438320E+00
          1   -1    0    0    0  501  0.00000000000E+00  0.00000000000E+00  0.21172352381E+03  0.21172352387E+03  0.50400000000E-02 0.  1.
         -1   -1    0    0  501    0 -0.00000000000E+00 -0.00000000000E+00 -0.31105497328E+01  0.31105538160E+01  0.50400000000E-02 0.  1.
          2    1    1    2    0  502 -0.18903251949E+02 -0.17322976909E+02  0.10881177698E+03  0.11179186589E+03  0.25500000000E-02 0.  1.
         -2    1    1    2  502    0  0.18903251949E+02  0.17322976909E+02  0.99801197104E+02  0.10304221180E+03  0.25500000000E-02 0.  1.
<mgrwt>
<rscale>  0 0.51325510E+02</rscale>
<asrwt>0</asrwt>
<pdfrwt beam="1">  1        1 0.32572859E-01 0.51325510E+02</pdfrwt>
<pdfrwt beam="2">  1       -1 0.47854629E-03 0.51325510E+02</pdfrwt>
<totfact> 0.53164079E+05</totfact>
</mgrwt>
</event>
<event>
 4    1  0.1893769E-002  0.1505293E+03  0.7818608E-02  0.1199824E+00
         -1   -1    0    0  501    0 -0.00000000000E+00  0.00000000000E+00  0.30982430707E+02  0.30982431117E+02  0.50400000000E-02 0.  1.
          1   -1    0    0    0  501  0.00000000000E+00 -0.00000000000E+00 -0.18283794196E+03  0.18283794203E+03  0.50400000000E-02 0.  1.
          2    1    1    2    0  502  0.16527924117E+02 -0.71298175950E+02 -0.10086322460E+03  0.12461938956E+03  0.25500000000E-02 0. -1.
         -2    1    1    2  502    0 -0.16527924117E+02  0.71298175950E+02 -0.50992286650E+02  0.89200983592E+02  0.25500000000E-02 0. -1.
<mgrwt>
<rscale>  0 0.15052925E+03</rscale>
<asrwt>0</asrwt>
<pdfrwt beam="2">  1        1 0.28128914E-01 0.15052925E+03</pdfrwt>
<pdfrwt beam="1">  1       -1 0.47665279E-02 0.15052925E+03</pdfrwt>
<totfact> 0.29027342E+04</totfact>
</mgrwt>
</event>
<event>
 4    1  0.1893769E-002  0.5090825E+02  0.7818608E-02  0.1440503E+00
         -1   -1    0    0  501    0 -0.00000000000E+00  0.00000000000E+00  0.13709678128E+01  0.13709770769E+01  0.50400000000E-02 0. -1.
          1   -1    0    0    0  501  0.00000000000E+00 -0.00000000000E+00 -0.47259337925E+03  0.47259337927E+03  0.50400000000E-02 0. -1.
          2    1    1    2    0  502  0.21457169318E+02  0.13686898557E+02 -0.23946340557E+03  0.24081209256E+03  0.25500000000E-02 0.  1.
         -2    1    1    2  502    0 -0.21457169318E+02 -0.13686898557E+02 -0.23175900586E+03  0.23315226379E+03  0.25500000000E-02 0.  1.
<mgrwt>
<rscale>  0 0.50908251E+02</rscale>
<asrwt>0</asrwt>
<pdfrwt beam="2">  1        1 0.72706544E-01 0.50908251E+02</pdfrwt>
<pdfrwt beam="1">  1       -1 0.21091922E-03 0.50908251E+02</pdfrwt>
<totfact> 0.61907240E+05</totfact>
</mgrwt>
</event>
<event>
 4    1  0.1893769E-002  0.4164940E+02  0.7818608E-02  0.1496413E+00
         -1   -1    0    0  501    0 -0.00000000000E+00  0.00000000000E+00  0.74430705844E+02  0.74430706015E+02  0.50400000000E-02 0.  1.
          1   -1    0    0    0  501  0.00000000000E+00 -0.00000000000E+00 -0.58264660431E+01  0.58264682229E+01  0.50400000000E-02 0.  1.
          2    1    1    2    0  502 -0.14498936216E+02  0.14946467962E+02  0.33862652019E+02  0.39752927744E+02  0.25500000000E-02 0. -1.
         -2    1    1    2  502    0  0.14498936216E+02 -0.14946467962E+02  0.34741587782E+02  0.40504246494E+02  0.25500000000E-02 0. -1.
<mgrwt>
<rscale>  0 0.41649397E+02</rscale>
<asrwt>0</asrwt>
<pdfrwt beam="2">  1        1 0.89637959E-03 0.41649397E+02</pdfrwt>
<pdfrwt beam="1">  1       -1 0.11450878E-01 0.41649397E+02</pdfrwt>
<totfact> 0.60863389E+05</totfact>
</mgrwt>
</event>
<event>
 4    1  0.1893769E-002  0.5038595E+02  0.7818608E-02  0.1443271E+00
         -1   -1    0    0  501    0 -0.00000000000E+00  0.00000000000E+00  0.68785858499E+02  0.68785858683E+02  0.50400000000E-02 0.  1.
          1   -1    0    0    0  501  0.00000000000E+00 -0.00000000000E+00 -0.92269823773E+01  0.92269837538E+01  0.50400000000E-02 0.  1.
          2    1    1    2    0  502  0.18226301605E+02  0.16857954351E+02  0.36402361421E+02  0.44062689644E+02  0.25500000000E-02 0. -1.
         -2    1    1    2  502    0 -0.18226301605E+02 -0.16857954351E+02  0.23156514700E+02  0.33950152793E+02  0.25500000000E-02 0. -1.
<mgrwt>
<rscale>  0 0.50385949E+02</rscale>
<asrwt>0</asrwt>
<pdfrwt beam="2">  1        1 0.14195359E-02 0.50385949E+02</pdfrwt>
<pdfrwt beam="1">  1       -1 0.10582440E-01 0.50385949E+02</pdfrwt>
<totfact> 0.38593092E+05</totfact>
</mgrwt>
</event>
<event>
 4    1  0.1893769E-002  0.5939526E+02  0.7818608E-02  0.1400387E+00
          1   -1    0    0    0  501  0.00000000000E+00  0.00000000000E+00  0.23523297712E+02  0.23523298251E+02  0.50400000000E-02 0. -1.
         -1   -1    0    0  501    0 -0.00000000000E+00 -0.00000000000E+00 -0.37492582410E+02  0.37492582748E+02  0.50400000000E-02 0. -1.
          2    1    1    2    0  502 -0.12938514098E+02 -0.18418403288E+02  0.12916780659E+02  0.25951607963E+02  0.25500000000E-02 0.  1.
         -2    1    1    2  502    0  0.12938514098E+02  0.18418403288E+02 -0.26886065357E+02  0.35064273037E+02  0.25500000000E-02 0.  1.
<mgrwt>
<rscale>  0 0.59395259E+02</rscale>
<asrwt>0</asrwt>
<pdfrwt beam="1">  1        1 0.36189689E-02 0.59395259E+02</pdfrwt>
<pdfrwt beam="2">  1       -1 0.57680897E-02 0.59395259E+02</pdfrwt>
<totfact> 0.27578593E+05</totfact>
</mgrwt>
</event>
<event>
 4    1  0.1893769E-002  0.4809256E+02  0.7818608E-02  0.1455910E+00
         -1   -1    0    0  501    0 -0.00000000000E+00  0.00000000000E+00  0.76714071594E+00  0.76715727178E+00  0.50400000000E-02 0. -1.
          1   -1    0    0    0  501  0.00000000000E+00 -0.00000000000E+00 -0.75373033139E+03  0.75373033140E+03  0.50400000000E-02 0. -1.
          2    1    1    2    0  502  0.22658283527E+02 -0.61289645593E+01 -0.29456829225E+03  0.29550201492E+03  0.25500000000E-02 0.  1.
         -2    1    1    2  502    0 -0.22658283527E+02  0.61289645593E+01 -0.45839489842E+03  0.45899547375E+03  0.25500000000E-02 0.  1.
<mgrwt>
<rscale>  0 0.48092556E+02</rscale>
<asrwt>0</asrwt>
<pdfrwt beam="2">  1        1 0.11595792E+00 0.48092556E+02</pdfrwt>
<pdfrwt beam="1">  1       -1 0.11802353E-03 0.48092556E+02</pdfrwt>
<totfact> 0.72881693E+05</totfact>
</mgrwt>
</event>
<event>
 4    1  0.1893769E-002  0.5999891E+02  0.7818608E-02  0.1397836E+00
          1   -1    0    0    0  501  0.00000000000E+00  0.00000000000E+00  0.28062820435E+03  0.28062820440E+03  0.50400000000E-02 0.  1.
         -1   -1    0    0  501    0 -0.00000000000E+00 -0.00000000000E+00 -0.32069713651E+01  0.32069753255E+01  0.50400000000E-02 0.  1.
          2    1    1    2    0  502 -0.12799154795E+02 -0.26662150481E+02  0.11492584773E+03  0.11867029584E+03  0.25500000000E-02 0. -1.
         -2    1    1    2  502    0  0.12799154795E+02  0.26662150481E+02  0.16249538526E+03  0.16516488388E+03  0.25500000000E-02 0. -1.
<mgrwt>
<rscale>  0 0.59998906E+02</rscale>
<asrwt>0</asrwt>
<pdfrwt beam="1">  1        1 0.43173566E-01 0.59998906E+02</pdfrwt>
<pdfrwt beam="2">  1       -1 0.49338057E-03 0.59998906E+02</pdfrwt>
<totfact> 0.37667938E+05</totfact>
</mgrwt>
</event>
<event>
 4    1  0.1893769E-002  0.1273686E+03  0.7818608E-02  0.1231413E+00
         -1   -1    0    0  501    0 -0.00000000000E+00  0.00000000000E+00  0.22886940687E+01  0.22886996181E+01  0.50400000000E-02 0. -1.
          1   -1    0    0    0  501  0.00000000000E+00 -0.00000000000E+00 -0.17720521434E+04  0.17720521434E+04  0.50400000000E-02 0. -1.
          2    1    1    2    0  502  0.26522602525E+02  0.56509711510E+02 -0.70928002695E+03  0.71202173603E+03  0.25500000000E-02 0.  1.
         -2    1    1    2  502    0 -0.26522602525E+02 -0.56509711510E+02 -0.10604834224E+04  0.10623191070E+04  0.25500000000E-02 0.  1.
<mgrwt>
<rscale>  0 0.12736860E+03</rscale>
<asrwt>0</asrwt>
<pdfrwt beam="2">  1        1 0.27262231E+00 0.12736860E+03</pdfrwt>
<pdfrwt beam="1">  1       -1 0.35210862E-03 0.12736860E+03</pdfrwt>
<totfact> 0.38095089E+04</totfact>
</mgrwt>
</event>
<event>
 4    1  0.1893769E-002  0.9395646E+02  0.7818608E-02  0.1293544E+00
          1   -1    0    0    0  501  0.00000000000E+00  0.00000000000E+00  0.19750052979E+03  0.19750052986E+03  0.50400000000E-02 0. -1.
         -1   -1    0    0  501    0 -0.00000000000E+00 -0.00000000000E+00 -0.11174419742E+02  0.11174420878E+02  0.50400000000E-02 0. -1.
          2    1    1    2    0  502 -0.33015810150E+01  0.39805011009E+02  0.14808964161E+03  0.15338148942E+03  0.25500000000E-02 0.  1.
         -2    1    1    2  502    0  0.33015810150E+01 -0.39805011009E+02  0.38236468442E+02  0.55293461314E+02  0.25500000000E-02 0.  1.
<mgrwt>
<rscale>  0 0.93956457E+02</rscale>
<asrwt>0</asrwt>
<pdfrwt beam="1">  1        1 0.30384698E-01 0.93956457E+02</pdfrwt>
<pdfrwt beam="2">  1       -1 0.17191415E-02 0.93956457E+02</pdfrwt>
<totfact> 0.10895490E+05</totfact>
</mgrwt>
</event>
<event>
 4    1  0.1893769E-002  0.5446658E+02  0.7818608E-02  0.1422638E+00
          1   -1    0    0    0  501  0.00000000000E+00  0.00000000000E+00  0.12336022873E+01  0.12336125830E+01  0.50400000000E-02 0.  1.
         -1   -1    0    0  501    0 -0.00000000000E+00 -0.00000000000E+00 -0.60120600999E+03  0.60120601001E+03  0.50400000000E-02 0.  1.
          2    1    1    2    0  502 -0.11559315912E+02 -0.24655886646E+02 -0.30384447007E+03  0.30506227648E+03  0.25500000000E-02 0. -1.
         -2    1    1    2  502    0  0.11559315912E+02  0.24655886646E+02 -0.29612793763E+03  0.29737734612E+03  0.25500000000E-02 0. -1.
<mgrwt>
<rscale>  0 0.54466585E+02</rscale>
<asrwt>0</asrwt>
<pdfrwt beam="1">  1        1 0.18978624E-03 0.54466585E+02</pdfrwt>
<pdfrwt beam="2">  1       -1 0.92492999E-01 0.54466585E+02</pdfrwt>
<totfact> 0.15580949E+05</totfact>
</mgrwt>
</event>
<event>
 4    1  0.1893769E-002  0.9115251E+02  0.7818608E-02  0.1300084E+00
         -1   -1    0    0  501    0 -0.00000000000E+00  0.00000000000E+00  0.43541944662E+01  0.43541973831E+01  0.50400000000E-02 0.  1.
          1   -1    0    0    0  501  0.00000000000E+00 -0.00000000000E+00 -0.47705593022E+03  0.47705593024E+03  0.50400000000E-02 0.  1.
          2    1    1    2    0  502  0.34092553211E+02 -0.75555098385E+01 -0.39103344736E+03  0.39258953740E+03  0.25500000000E-02 0.  1.
         -2    1    1    2  502    0 -0.34092553211E+02  0.75555098385E+01 -0.81668288384E+02  0.88820590222E+02  0.25500000000E-02 0.  1.
<mgrwt>
<rscale>  0 0.91152510E+02</rscale>
<asrwt>0</asrwt>
<pdfrwt beam="2">  1        1 0.73393179E-01 0.91152510E+02</pdfrwt>
<pdfrwt beam="1">  1       -1 0.66987668E-03 0.91152510E+02</pdfrwt>
<totfact> 0.13855414E+05</totfact>
</mgrwt>
</event>
<event>
 4    1  0.1893769E-002  0.4489128E+02  0.7818608E-02  0.1475022E+00
         -1   -1    0    0  501    0 -0.00000000000E+00  0.00000000000E+00  0.13663502061E+03  0.13663502070E+03  0.50400000000E-02 0. -1.
          1   -1    0    0    0  501  0.00000000000E+00 -0.00000000000E+00 -0.36872420860E+01  0.36872455305E+01  0.50400000000E-02 0. -1.
          2    1    1    2    0  502 -0.72684868811E+01 -0.18889620577E+02  0.36142437447E+02  0.41423718546E+02  0.25500000000E-02 0. -1.
         -2    1    1    2  502    0  0.72684868811E+01  0.18889620577E+02  0.96805341078E+02  0.98898547688E+02  0.25500000000E-02 0. -1.
<mgrwt>
<rscale>  0 0.44891275E+02</rscale>
<asrwt>0</asrwt>
<pdfrwt beam="2">  1        1 0.56726835E-03 0.44891275E+02</pdfrwt>
<pdfrwt beam="1">  1       -1 0.21020770E-01 0.44891275E+02</pdfrwt>
<totfact> 0.45804750E+05</totfact>
</mgrwt>
</event>
<event>
 4    1  0.1893769E-002  0.6199930E+02  0.7818608E-02  0.1389628E+00
         -1   -1    0    0  501    0 -0.00000000000E+00  0.00000000000E+00  0.43809773251E+01  0.43809802242E+01  0.50400000000E-02 0.  1.
          1   -1    0    0    0  501  0.00000000000E+00 -0.00000000000E+00 -0.21935245221E+03  0.21935245227E+03  0.50400000000E-02 0.  1.
          2    1    1    2    0  502  0.29385688351E+02 -0.35652676591E+01 -0.14070656214E+03  0.14378653084E+03  0.25500000000E-02 0. -1.
         -2    1    1    2  502    0 -0.29385688351E+02  0.35652676591E+01 -0.74264912745E+02  0.79946901659E+02  0.25500000000E-02 0. -1.
<mgrwt>
<rscale>  0 0.61999305E+02</rscale>
<asrwt>0</asrwt>
<pdfrwt beam="2">  1        1 0.33746523E-01 0.61999305E+02</pdfrwt>
<pdfrwt beam="1">  1       -1 0.67399691E-03 0.61999305E+02</pdfrwt>
<totfact> 0.33124069E+05</totfact>
</mgrwt>
</event>
<event>
 4    1  0.1893769E-002  0.4271451E+02  0.7818608E-02  0.1489136E+00
         -1   -1    0    0  501    0 -0.00000000000E+00  0.00000000000E+00  0.17732877676E+02  0.17732878392E+02  0.50400000000E-02 0. -1.
          1   -1    0    0    0  501  0.00000000000E+00 -0.00000000000E+00 -0.25722408556E+02  0.25722409050E+02  0.50400000000E-02 0. -1.
          2    1    1    2    0  502  0.89593070134E+01 -0.19180487623E+02 -0.68672147998E+01  0.22255761799E+02  0.25500000000E-02 0.  1.
         -2    1    1    2  502    0 -0.89593070134E+01  0.19180487623E+02 -0.11223160809E+01  0.21199525644E+02  0.25500000000E-02 0.  1.
<mgrwt>
<rscale>  0 0.42714510E+02</rscale>
<asrwt>0</asrwt>
<pdfrwt beam="2">  1        1 0.39572937E-02 0.42714510E+02</pdfrwt>
<pdfrwt beam="1">  1       -1 0.27281351E-02 0.42714510E+02</pdfrwt>
<totfact> 0.65696747E+05</totfact>
</mgrwt>
</event>
<event>
 4    1  0.1893769E-002  0.4517459E+02  0.7818608E-02  0.1473255E+00
         -1   -1    0    0  501    0 -0.00000000000E+00  0.00000000000E+00  0.58303908740E+01  0.58303930524E+01  0.50400000000E-02 0. -1.
          1   -1    0    0    0  501  0.00000000000E+00 -0.00000000000E+00 -0.87504552913E+02  0.87504553058E+02  0.50400000000E-02 0. -1.
          2    1    1    2    0  502 -0.22568918781E+02  0.86300563605E+00 -0.40234804942E+02  0.46140442227E+02  0.25500000000E-02 0. -1.
         -2    1    1    2  502    0  0.22568918781E+02 -0.86300563605E+00 -0.41439357097E+02  0.47194503883E+02  0.25500000000E-02 0. -1.
<mgrwt>
<rscale>  0 0.45174588E+02</rscale>
<asrwt>0</asrwt>
<pdfrwt beam="2">  1        1 0.13462238E-01 0.45174588E+02</pdfrwt>
<pdfrwt beam="1">  1       -1 0.89698345E-03 0.45174588E+02</pdfrwt>
<totfact> 0.64037177E+05</totfact>
</mgrwt>
</event>
<event>
 4    1  0.1893769E-002  0.4942492E+02  0.7818608E-02  0.1448468E+00
          1   -1    0    0    0  501  0.00000000000E+00  0.00000000000E+00  0.53037594622E+02  0.53037594861E+02  0.50400000000E-02 0.  1.
         -1   -1    0    0  501    0 -0.00000000000E+00 -0.00000000000E+00 -0.11514582096E+02  0.11514583199E+02  0.50400000000E-02 0.  1.
          2    1    1    2    0  502  0.93301705844E+01 -0.18997874584E+02  0.37422643542E+02  0.42993320156E+02  0.25500000000E-02 0.  1.
         -2    1    1    2  502    0 -0.93301705844E+01  0.18997874584E+02  0.41003689835E+01  0.21558857905E+02  0.25500000000E-02 0.  1.
<mgrwt>
<rscale>  0 0.49424924E+02</rscale>
<asrwt>0</asrwt>
<pdfrwt beam="1">  1        1 0.81596297E-02 0.49424924E+02</pdfrwt>
<pdfrwt beam="2">  1       -1 0.17714743E-02 0.49424924E+02</pdfrwt>
<totfact> 0.48304215E+05</totfact>
</mgrwt>
</event>
<event>
 4    1  0.1893769E-002  0.5216408E+02  0.7818608E-02  0.1434007E+00
          1   -1    0    0    0  501  0.00000000000E+00  0.00000000000E+00  0.35995733144E+03  0.35995733147E+03  0.50400000000E-02 0. -1.
         -1   -1    0    0  501    0 -0.00000000000E+00 -0.00000000000E+00 -0.18898675044E+01  0.18898742249E+01  0.50400000000E-02 0. -1.
          2    1    1    2    0  502  0.17033259940E+02 -0.15553090889E+02  0.94575941064E+02  0.97348031387E+02  0.25500000000E-02 0.  1.
         -2    1    1    2  502    0 -0.17033259940E+02  0.15553090889E+02  0.26349152287E+03  0.26449917431E+03  0.25500000000E-02 0.  1.
<mgrwt>
<rscale>  0 0.52164083E+02</rscale>
<asrwt>0</asrwt>
<pdfrwt beam="1">  1        1 0.55378101E-01 0.52164083E+02</pdfrwt>
<pdfrwt beam="2">  1       -1 0.29074911E-03 0.52164083E+02</pdfrwt>
<totfact> 0.55996705E+05</totfact>
</mgrwt>
</event>
<event>
 4    1  0.1893769E-002  0.5475724E+02  0.7818608E-02  0.1421250E+00
         -1   -1    0    0  501    0 -0.00000000000E+00  0.00000000000E+00  0.36308828870E+02  0.36308829220E+02  0.50400000000E-02 0.  1.
          1   -1    0    0    0  501  0.00000000000E+00 -0.00000000000E+00 -0.20644811073E+02  0.20644811688E+02  0.50400000000E-02 0.  1.
          2    1    1    2    0  502 -0.25193708252E+02  0.50315774974E+01  0.17674631418E+02  0.31183846938E+02  0.25500000000E-02 0. -1.
         -2    1    1    2  502    0  0.25193708252E+02 -0.50315774974E+01 -0.20106136209E+01  0.25769793970E+02  0.25500000000E-02 0. -1.
<mgrwt>
<rscale>  0 0.54757244E+02</rscale>
<asrwt>0</asrwt>
<pdfrwt beam="2">  1        1 0.31761249E-02 0.54757244E+02</pdfrwt>
<pdfrwt beam="1">  1       -1 0.55859737E-02 0.54757244E+02</pdfrwt>
<totfact> 0.33807914E+05</totfact>
</mgrwt>
</event>
<event>
 4    1  0.1893769E-002  0.8297617E+02  0.7818608E-02  0.1320812E+00
          1   -1    0    0    0  501  0.00000000000E+00  0.00000000000E+00  0.26022205552E+03  0.26022205557E+03  0.50400000000E-02 0. -1.
         -1   -1    0    0  501    0 -0.00000000000E+00 -0.00000000000E+00 -0.66145852113E+01  0.66145871314E+01  0.50400000000E-02 0. -1.
          2    1    1    2    0  502  0.30973377420E+02 -0.25739029855E+02  0.94739960205E+02  0.10294419766E+03  0.25500000000E-02 0. -1.
         -2    1    1    2  502    0 -0.30973377420E+02  0.25739029855E+02  0.15886751010E+03  0.16389244503E+03  0.25500000000E-02 0. -1.
<mgrwt>
<rscale>  0 0.82976171E+02</rscale>
<asrwt>0</asrwt>
<pdfrwt beam="1">  1        1 0.40034173E-01 0.82976171E+02</pdfrwt>
<pdfrwt beam="2">  1       -1 0.10176284E-02 0.82976171E+02</pdfrwt>
<totfact> 0.16008504E+05</totfact>
</mgrwt>
</event>
<event>
 4    1  0.1893769E-002  0.4308047E+02  0.7818608E-02  0.1486693E+00
          1   -1    0    0    0  501  0.00000000000E+00  0.00000000000E+00  0.32214240734E+02  0.32214241128E+02  0.50400000000E-02 0.  1.
         -1   -1    0    0  501    0 -0.00000000000E+00 -0.00000000000E+00 -0.14403000463E+02  0.14403001345E+02  0.50400000000E-02 0.  1.
          2    1    1    2    0  502 -0.16192698335E+02  0.14191209243E+02  0.82317176094E+01  0.23051140545E+02  0.25500000000E-02 0. -1.
         -2    1    1    2  502    0  0.16192698335E+02 -0.14191209243E+02  0.95795226614E+01  0.23566101928E+02  0.25500000000E-02 0. -1.
<mgrwt>
<rscale>  0 0.43080471E+02</rscale>
<asrwt>0</asrwt>
<pdfrwt beam="1">  1        1 0.49560371E-02 0.43080471E+02</pdfrwt>
<pdfrwt beam="2">  1       -1 0.22158464E-02 0.43080471E+02</pdfrwt>
<totfact> 0.65445442E+05</totfact>
</mgrwt>
</event>
<event>
 4    1  0.1893769E-002  0.5685225E+02  0.7818608E-02  0.1411537E+00
         -1   -1    0    0  501    0 -0.00000000000E+00  0.00000000000E+00  0.66202275444E+00  0.66204193900E+00  0.50400000000E-02 0. -1.
          1   -1    0    0    0  501  0.00000000000E+00 -0.00000000000E+00 -0.12205515832E+04  0.12205515832E+04  0.50400000000E-02 0. -1.
          2    1    1    2    0  502 -0.19655009855E+02  0.56674264821E+01 -0.10339356529E+04  0.10341379857E+04  0.25500000000E-02 0.  1.
         -2    1    1    2  502    0  0.19655009855E+02 -0.56674264821E+01 -0.18595390757E+03  0.18707563947E+03  0.25500000000E-02 0.  1.
<mgrwt>
<rscale>  0 0.56852252E+02</rscale>
<asrwt>0</asrwt>
<pdfrwt beam="2">  1        1 0.18777537E+00 0.56852252E+02</pdfrwt>
<pdfrwt beam="1">  1       -1 0.10185211E-03 0.56852252E+02</pdfrwt>
<totfact> 0.42779675E+05</totfact>
</mgrwt>
</event>
<event>
 4    1  0.1893769E-002  0.1041271E+03  0.7818608E-02  0.1271849E+00
          1   -1    0    0    0  501  0.00000000000E+00  0.00000000000E+00  0.38939390566E+01  0.38939423183E+01  0.50400000000E-02 0. -1.
         -1   -1    0    0  501    0 -0.00000000000E+00 -0.00000000000E+00 -0.69611027463E+03  0.69611027465E+03  0.50400000000E-02 0. -1.
          2    1    1    2    0  502  0.21474130986E+02 -0.47278838767E+02 -0.37142767064E+03  0.37503991977E+03  0.25500000000E-02 0.  1.
         -2    1    1    2  502    0 -0.21474130986E+02  0.47278838767E+02 -0.32078866493E+03  0.32496429719E+03  0.25500000000E-02 0.  1.
<mgrwt>
<rscale>  0 0.10412708E+03</rscale>
<asrwt>0</asrwt>
<pdfrwt beam="1">  1        1 0.59906836E-03 0.10412708E+03</pdfrwt>
<pdfrwt beam="2">  1       -1 0.10709379E+00 0.10412708E+03</pdfrwt>
<totfact> 0.26068356E+04</totfact>
</mgrwt>
</event>
<event>
 4    1  0.1893769E-002  0.5867995E+02  0.7818608E-02  0.1403456E+00
          1   -1    0    0    0  501  0.00000000000E+00  0.00000000000E+00  0.14428731847E+02  0.14428732727E+02  0.50400000000E-02 0. -1.
         -1   -1    0    0  501    0 -0.00000000000E+00 -0.00000000000E+00 -0.59661113501E+02  0.59661113713E+02  0.50400000000E-02 0. -1.
          2    1    1    2    0  502  0.23684584326E+02 -0.14810452164E+02 -0.33946320364E+02  0.43962048414E+02  0.25500000000E-02 0.  1.
         -2    1    1    2  502    0 -0.23684584326E+02  0.14810452164E+02 -0.11286061290E+02  0.30127798026E+02  0.25500000000E-02 0.  1.
<mgrwt>
<rscale>  0 0.58679954E+02</rscale>
<asrwt>0</asrwt>
<pdfrwt beam="1">  1        1 0.22198050E-02 0.58679954E+02</pdfrwt>
<pdfrwt beam="2">  1       -1 0.91786328E-02 0.58679954E+02</pdfrwt>
<totfact> 0.26930203E+05</totfact>
</mgrwt>
</event>
<event>
 4    1  0.1893769E-002  0.8449309E+02  0.7818608E-02  0.1316763E+00
         -1   -1    0    0  501    0 -0.00000000000E+00  0.00000000000E+00  0.40182572594E+01  0.40182604201E+01  0.50400000000E-02 0.  1.
          1   -1    0    0    0  501  0.00000000000E+00 -0.00000000000E+00 -0.44416518009E+03  0.44416518012E+03  0.50400000000E-02 0.  1.
          2    1    1    2    0  502  0.58383899365E-01 -0.34716230178E+02 -0.92376581031E+02  0.98684612660E+02  0.25500000000E-02 0. -1.
         -2    1    1    2  502    0 -0.58383899365E-01  0.34716230178E+02 -0.34777034180E+03  0.34949882788E+03  0.25500000000E-02 0. -1.
<mgrwt>
<rscale>  0 0.84493093E+02</rscale>
<asrwt>0</asrwt>
<pdfrwt beam="2">  1        1 0.68333066E-01 0.84493093E+02</pdfrwt>
<pdfrwt beam="1">  1       -1 0.61819402E-03 0.84493093E+02</pdfrwt>
<totfact> 0.16764137E+05</totfact>
</mgrwt>
</event>
<event>
 4    1  0.1893769E-002  0.4255073E+02  0.7818608E-02  0.1490238E+00
         -1   -1    0    0  501    0 -0.00000000000E+00  0.00000000000E+00  0.34158964150E+00  0.34162682094E+00  0.50400000000E-02 0.  1.
          1   -1    0    0    0  501  0.00000000000E+00 -0.00000000000E+00 -0.13250297329E+04  0.13250297330E+04  0.50400000000E-02 0.  1.
          2    1    1    2    0  502 -0.14574338490E+02 -0.15445060531E+02 -0.70271452063E+03  0.70303531828E+03  0.25500000000E-02 0.  1.
         -2    1    1    2  502    0  0.14574338490E+02  0.15445060531E+02 -0.62197362267E+03  0.62233604150E+03  0.25500000000E-02 0.  1.
<mgrwt>
<rscale>  0 0.42550726E+02</rscale>
<asrwt>0</asrwt>
<pdfrwt beam="2">  1        1 0.20384662E+00 0.42550726E+02</pdfrwt>
<pdfrwt beam="1">  1       -1 0.52556174E-04 0.42550726E+02</pdfrwt>
<totfact> 0.84042384E+05</totfact>
</mgrwt>
</event>
<event>
 4    1  0.1893769E-002  0.7013245E+02  0.7818608E-02  0.1359643E+00
          1   -1    0    0    0  501  0.00000000000E+00  0.00000000000E+00  0.16683003284E+03  0.16683003291E+03  0.50400000000E-02 0. -1.
         -1   -1    0    0  501    0 -0.00000000000E+00 -0.00000000000E+00 -0.73706160861E+01  0.73706178093E+01  0.50400000000E-02 0. -1.
          2    1    1    2    0  502 -0.92787696532E+01  0.28318761571E+02  0.33822078801E+02  0.45077498202E+02  0.25500000000E-02 0. -1.
         -2    1    1    2  502    0  0.92787696532E+01 -0.28318761571E+02  0.12563733795E+03  0.12912315252E+03  0.25500000000E-02 0. -1.
<mgrwt>
<rscale>  0 0.70132454E+02</rscale>
<asrwt>0</asrwt>
<pdfrwt beam="1">  1        1 0.25666157E-01 0.70132454E+02</pdfrwt>
<pdfrwt beam="2">  1       -1 0.11339412E-02 0.70132454E+02</pdfrwt>
<totfact> 0.22926389E+05</totfact>
</mgrwt>
</event>
<event>
 4    1  0.1893769E-002  0.7854516E+02  0.7818608E-02  0.1333231E+00
         -1   -1    0    0  501    0 -0.00000000000E+00  0.00000000000E+00  0.82011478552E+01  0.82011494038E+01  0.50400000000E-02 0. -1.
          1   -1    0    0    0  501  0.00000000000E+00 -0.00000000000E+00 -0.18806335079E+03  0.18806335086E+03  0.50400000000E-02 0. -1.
          2    1    1    2    0  502  0.28624019635E+01 -0.39166190416E+02 -0.90904270978E+02  0.99024089520E+02  0.25500000000E-02 0.  1.
         -2    1    1    2  502    0 -0.28624019635E+01  0.39166190416E+02 -0.88957931957E+02  0.97240410742E+02  0.25500000000E-02 0.  1.
<mgrwt>
<rscale>  0 0.78545159E+02</rscale>
<asrwt>0</asrwt>
<pdfrwt beam="2">  1        1 0.28932820E-01 0.78545159E+02</pdfrwt>
<pdfrwt beam="1">  1       -1 0.12617153E-02 0.78545159E+02</pdfrwt>
<totfact> 0.17401753E+05</totfact>
</mgrwt>
</event>
<event>
 4    1  0.1893769E-002  0.4991803E+02  0.7818608E-02  0.1445784E+00
         -1   -1    0    0  501    0 -0.00000000000E+00  0.00000000000E+00  0.14197968202E+01  0.14198057656E+01  0.50400000000E-02 0.  1.
          1   -1    0    0    0  501  0.00000000000E+00 -0.00000000000E+00 -0.43876027081E+03  0.43876027084E+03  0.50400000000E-02 0.  1.
          2    1    1    2    0  502 -0.14404636288E+02  0.19374074729E+02 -0.27451304794E+03  0.27557260716E+03  0.25500000000E-02 0. -1.
         -2    1    1    2  502    0  0.14404636288E+02 -0.19374074729E+02 -0.16282742605E+03  0.16460746945E+03  0.25500000000E-02 0. -1.
<mgrwt>
<rscale>  0 0.49918029E+02</rscale>
<asrwt>0</asrwt>
<pdfrwt beam="2">  1        1 0.67501473E-01 0.49918029E+02</pdfrwt>
<pdfrwt beam="1">  1       -1 0.21843132E-03 0.49918029E+02</pdfrwt>
<totfact> 0.64388036E+05</totfact>
</mgrwt>
</event>
<event>
 4    1  0.1893769E-002  0.4891530E+02  0.7818608E-02  0.1451281E+00
         -1   -1    0    0  501    0 -0.00000000000E+00  0.00000000000E+00  0.72575000922E+03  0.72575000923E+03  0.50400000000E-02 0. -1.
          1   -1    0    0    0  501  0.00000000000E+00 -0.00000000000E+00 -0.82421083834E+00  0.82422624785E+00  0.50400000000E-02 0. -1.
          2    1    1    2    0  502 -0.23842350295E+02 -0.31811332986E+01  0.29670376984E+03  0.29767718139E+03  0.25500000000E-02 0.  1.
         -2    1    1    2  502    0  0.23842350295E+02  0.31811332986E+01  0.42822202854E+03  0.42889705409E+03  0.25500000000E-02 0.  1.
<mgrwt>
<rscale>  0 0.48915299E+02</rscale>
<asrwt>0</asrwt>
<pdfrwt beam="2">  1        1 0.12680244E-03 0.48915299E+02</pdfrwt>
<pdfrwt beam="1">  1       -1 0.11165422E+00 0.48915299E+02</pdfrwt>
<totfact> 0.17498631E+05</totfact>
</mgrwt>
</event>
<event>
 4    1  0.1893769E-002  0.4530955E+02  0.7818608E-02  0.1472418E+00
         -1   -1    0    0  501    0 -0.00000000000E+00  0.00000000000E+00  0.88191048301E+00  0.88192488435E+00  0.50400000000E-02 0. -1.
          1   -1    0    0    0  501  0.00000000000E+00 -0.00000000000E+00 -0.58195766186E+03  0.58195766189E+03  0.50400000000E-02 0. -1.
          2    1    1    2    0  502  0.21449914103E+02 -0.72884164379E+01 -0.28876802588E+03  0.28965529963E+03  0.25500000000E-02 0. -1.
         -2    1    1    2  502    0 -0.21449914103E+02  0.72884164379E+01 -0.29230772550E+03  0.29318428714E+03  0.25500000000E-02 0. -1.
<mgrwt>
<rscale>  0 0.45309547E+02</rscale>
<asrwt>0</asrwt>
<pdfrwt beam="2">  1        1 0.89531642E-01 0.45309547E+02</pdfrwt>
<pdfrwt beam="1">  1       -1 0.13568011E-03 0.45309547E+02</pdfrwt>
<totfact> 0.84183447E+05</totfact>
</mgrwt>
</event>
<event>
 4    1  0.1893769E-002  0.5707272E+02  0.7818608E-02  0.1410544E+00
          1   -1    0    0    0  501  0.00000000000E+00  0.00000000000E+00  0.15069056974E+01  0.15069141258E+01  0.50400000000E-02 0.  1.
         -1   -1    0    0  501    0 -0.00000000000E+00 -0.00000000000E+00 -0.54039307964E+03  0.54039307966E+03  0.50400000000E-02 0.  1.
          2    1    1    2    0  502  0.65343379274E+01 -0.22624129642E+02 -0.42247753070E+03  0.42313332741E+03  0.25500000000E-02 0.  1.
         -2    1    1    2  502    0 -0.65343379274E+01  0.22624129642E+02 -0.11640864324E+03  0.11876666638E+03  0.25500000000E-02 0.  1.
<mgrwt>
<rscale>  0 0.57072715E+02</rscale>
<asrwt>0</asrwt>
<pdfrwt beam="1">  1        1 0.23183273E-03 0.57072715E+02</pdfrwt>
<pdfrwt beam="2">  1       -1 0.83137243E-01 0.57072715E+02</pdfrwt>
<totfact> 0.14925111E+05</totfact>
</mgrwt>
</event>
<event>
 4    1  0.1893769E-002  0.7606942E+02  0.7818608E-02  0.1340591E+00
         -1   -1    0    0  501    0 -0.00000000000E+00  0.00000000000E+00  0.44482867613E+01  0.44482896165E+01  0.50400000000E-02 0. -1.
          1   -1    0    0    0  501  0.00000000000E+00 -0.00000000000E+00 -0.32521254828E+03  0.32521254832E+03  0.50400000000E-02 0. -1.
          2    1    1    2    0  502  0.25634980149E+02 -0.53670685108E+01 -0.27990711249E+03  0.28112977299E+03  0.25500000000E-02 0.  1.
         -2    1    1    2  502    0 -0.25634980149E+02  0.53670685108E+01 -0.40857149029E+02  0.48531064947E+02  0.25500000000E-02 0.  1.
<mgrwt>
<rscale>  0 0.76069420E+02</rscale>
<asrwt>0</asrwt>
<pdfrwt beam="2">  1        1 0.50032681E-01 0.76069420E+02</pdfrwt>
<pdfrwt beam="1">  1       -1 0.68435229E-03 0.76069420E+02</pdfrwt>
<totfact> 0.20971884E+05</totfact>
</mgrwt>
</event>
<event>
 4    1  0.1893769E-002  0.4901684E+02  0.7818608E-02  0.1450718E+00
          1   -1    0    0    0  501  0.00000000000E+00  0.00000000000E+00  0.38628659691E+03  0.38628659695E+03  0.50400000000E-02 0. -1.
         -1   -1    0    0  501    0 -0.00000000000E+00 -0.00000000000E+00 -0.15549621181E+01  0.15549702860E+01  0.50400000000E-02 0. -1.
          2    1    1    2    0  502 -0.24436918589E+02 -0.79087541473E+00  0.20577995053E+03  0.20722735466E+03  0.25500000000E-02 0. -1.
         -2    1    1    2  502    0  0.24436918589E+02  0.79087541473E+00  0.17895168426E+03  0.18061421257E+03  0.25500000000E-02 0. -1.
<mgrwt>
<rscale>  0 0.49016839E+02</rscale>
<asrwt>0</asrwt>
<pdfrwt beam="1">  1        1 0.59428798E-01 0.49016839E+02</pdfrwt>
<pdfrwt beam="2">  1       -1 0.23922521E-03 0.49016839E+02</pdfrwt>
<totfact> 0.66126391E+05</totfact>
</mgrwt>
</event>
<event>
 4    1  0.1893769E-002  0.4518446E+02  0.7818608E-02  0.1473193E+00
         -1   -1    0    0  501    0 -0.00000000000E+00  0.00000000000E+00  0.45824884109E+01  0.45824911825E+01  0.50400000000E-02 0. -1.
          1   -1    0    0    0  501  0.00000000000E+00 -0.00000000000E+00 -0.11138241613E+03  0.11138241624E+03  0.50400000000E-02 0. -1.
          2    1    1    2    0  502  0.14763699637E+02  0.16917162553E+02 -0.59816967327E+02  0.63892306286E+02  0.25500000000E-02 0.  1.
         -2    1    1    2  502    0 -0.14763699637E+02 -0.16917162553E+02 -0.46982960390E+02  0.52072601139E+02  0.25500000000E-02 0.  1.
<mgrwt>
<rscale>  0 0.45184457E+02</rscale>
<asrwt>0</asrwt>
<pdfrwt beam="2">  1        1 0.17135755E-01 0.45184457E+02</pdfrwt>
<pdfrwt beam="1">  1       -1 0.70499852E-03 0.45184457E+02</pdfrwt>
<totfact> 0.66039063E+05</totfact>
</mgrwt>
</event>
<event>
 4    1  0.1893769E-002  0.4758692E+02  0.7818608E-02  0.1458809E+00
          1   -1    0    0    0  501  0.00000000000E+00  0.00000000000E+00  0.84689652537E+03  0.84689652538E+03  0.50400000000E-02 0. -1.
         -1   -1    0    0  501    0 -0.00000000000E+00 -0.00000000000E+00 -0.66846512643E+00  0.66848412610E+00  0.50400000000E-02 0. -1.
          2    1    1    2    0  502  0.59476491621E+01 -0.20678548601E+02  0.60400799726E+03  0.60439112970E+03  0.25500000000E-02 0. -1.
         -2    1    1    2  502    0 -0.59476491621E+01  0.20678548601E+02  0.24222006298E+03  0.24317387981E+03  0.25500000000E-02 0. -1.
<mgrwt>
<rscale>  0 0.47586925E+02</rscale>
<asrwt>0</asrwt>
<pdfrwt beam="1">  1        1 0.13029115E+00 0.47586925E+02</pdfrwt>
<pdfrwt beam="2">  1       -1 0.10284274E-03 0.47586925E+02</pdfrwt>
<totfact> 0.74040389E+05</totfact>
</mgrwt>
</event>
<event>
 4    1  0.1893769E-002  0.4130196E+02  0.7818608E-02  0.1498843E+00
          1   -1    0    0    0  501  0.00000000000E+00  0.00000000000E+00  0.16248453857E+04  0.16248453857E+04  0.50400000000E-02 0. -1.
         -1   -1    0    0  501    0 -0.00000000000E+00 -0.00000000000E+00 -0.26243950744E+00  0.26248789813E+00  0.50400000000E-02 0. -1.
          2    1    1    2    0  502 -0.10418004655E+02 -0.17495058275E+02  0.94774493192E+03  0.94796364270E+03  0.25500000000E-02 0.  1.
         -2    1    1    2  502    0  0.10418004655E+02  0.17495058275E+02  0.67683801427E+03  0.67714423091E+03  0.25500000000E-02 0.  1.
<mgrwt>
<rscale>  0 0.41301959E+02</rscale>
<asrwt>0</asrwt>
<pdfrwt beam="1">  1        1 0.24997459E+00 0.41301959E+02</pdfrwt>
<pdfrwt beam="2">  1       -1 0.40379295E-04 0.41301959E+02</pdfrwt>
<totfact> 0.77471714E+05</totfact>
</mgrwt>
</event>
<event>
 4    1  0.1893769E-002  0.4743097E+02  0.7818608E-02  0.1459712E+00
          1   -1    0    0    0  501  0.00000000000E+00  0.00000000000E+00  0.21023938313E+01  0.21023998724E+01  0.50400000000E-02 0. -1.
         -1   -1    0    0  501    0 -0.00000000000E+00 -0.00000000000E+00 -0.26751576742E+03  0.26751576747E+03  0.50400000000E-02 0. -1.
          2    1    1    2    0  502 -0.23008279334E+02 -0.51337547977E+01 -0.11800612757E+03  0.12033778504E+03  0.25500000000E-02 0.  1.
         -2    1    1    2  502    0  0.23008279334E+02  0.51337547977E+01 -0.14740724602E+03  0.14928038230E+03  0.25500000000E-02 0.  1.
<mgrwt>
<rscale>  0 0.47430974E+02</rscale>
<asrwt>0</asrwt>
<pdfrwt beam="1">  1        1 0.32344588E-03 0.47430974E+02</pdfrwt>
<pdfrwt beam="2">  1       -1 0.41156245E-01 0.47430974E+02</pdfrwt>
<totfact> 0.33340982E+05</totfact>
</mgrwt>
</event>
<event>
 4    1  0.1893769E-002  0.4368670E+02  0.7818608E-02  0.1482711E+00
         -1   -1    0    0  501    0 -0.00000000000E+00  0.00000000000E+00  0.68109047355E+03  0.68109047357E+03  0.50400000000E-02 0.  1.
          1   -1    0    0    0  501  0.00000000000E+00 -0.00000000000E+00 -0.70053226528E+00  0.70055039526E+00  0.50400000000E-02 0.  1.
          2    1    1    2    0  502 -0.15975048377E+02  0.14847127421E+02  0.35926203317E+03  0.35992339164E+03  0.25500000000E-02 0. -1.
         -2    1    1    2  502    0  0.15975048377E+02 -0.14847127421E+02  0.32112790811E+03  0.32186763233E+03  0.25500000000E-02 0. -1.
<mgrwt>
<rscale>  0 0.43686705E+02</rscale>
<asrwt>0</asrwt>
<pdfrwt beam="2">  1        1 0.10777488E-03 0.43686705E+02</pdfrwt>
<pdfrwt beam="1">  1       -1 0.10478385E+00 0.43686705E+02</pdfrwt>
<totfact> 0.24373512E+05</totfact>
</mgrwt>
</event>
<event>
 4    1  0.1893769E-002  0.6686866E+02  0.7818608E-02  0.1371077E+00
          1   -1    0    0    0  501  0.00000000000E+00  0.00000000000E+00  0.44112529151E+03  0.44112529154E+03  0.50400000000E-02 0. -1.
         -1   -1    0    0  501    0 -0.00000000000E+00 -0.00000000000E+00 -0.25340950800E+01  0.25341000920E+01  0.50400000000E-02 0. -1.
          2    1    1    2    0  502 -0.23666146581E+02  0.10057222515E+02  0.36107222960E+03  0.36198672519E+03  0.25500000000E-02 0.  1.
         -2    1    1    2  502    0  0.23666146581E+02 -0.10057222515E+02  0.77518966831E+02  0.81672666442E+02  0.25500000000E-02 0.  1.
<mgrwt>
<rscale>  0 0.66868664E+02</rscale>
<asrwt>0</asrwt>
<pdfrwt beam="1">  1        1 0.67865441E-01 0.66868664E+02</pdfrwt>
<pdfrwt beam="2">  1       -1 0.38986110E-03 0.66868664E+02</pdfrwt>
<totfact> 0.30775121E+05</totfact>
</mgrwt>
</event>
<event>
 4    1  0.1893769E-002  0.1402706E+03  0.7818608E-02  0.1212965E+00
         -1   -1    0    0  501    0 -0.00000000000E+00  0.00000000000E+00  0.76468166090E+01  0.76468182699E+01  0.50400000000E-02 0.  1.
          1   -1    0    0    0  501  0.00000000000E+00 -0.00000000000E+00 -0.64326923143E+03  0.64326923145E+03  0.50400000000E-02 0.  1.
          2    1    1    2    0  502 -0.14157295993E+02  0.51015034103E+02 -0.53127097348E+03  0.53390243491E+03  0.25500000000E-02 0. -1.
         -2    1    1    2  502    0  0.14157295993E+02 -0.51015034103E+02 -0.10435144134E+03  0.11701361481E+03  0.25500000000E-02 0. -1.
<mgrwt>
<rscale>  0 0.14027063E+03</rscale>
<asrwt>0</asrwt>
<pdfrwt beam="2">  1        1 0.98964455E-01 0.14027063E+03</pdfrwt>
<pdfrwt beam="1">  1       -1 0.11764340E-02 0.14027063E+03</pdfrwt>
<totfact> 0.44366906E+04</totfact>
</mgrwt>
</event>
<event>
 4    1  0.1893769E-002  0.5462018E+02  0.7818608E-02  0.1421904E+00
          1   -1    0    0    0  501  0.00000000000E+00  0.00000000000E+00  0.13786614580E+04  0.13786614580E+04  0.50400000000E-02 0. -1.
         -1   -1    0    0  501    0 -0.00000000000E+00 -0.00000000000E+00 -0.54097744924E+00  0.54100092623E+00  0.50400000000E-02 0. -1.
          2    1    1    2    0  502 -0.25530374083E+02 -0.12544933023E+01  0.44624901894E+03  0.44698049248E+03  0.25500000000E-02 0. -1.
         -2    1    1    2  502    0  0.25530374083E+02  0.12544933023E+01  0.93187146161E+03  0.93222196645E+03  0.25500000000E-02 0. -1.
<mgrwt>
<rscale>  0 0.54620178E+02</rscale>
<asrwt>0</asrwt>
<pdfrwt beam="1">  1        1 0.21210089E+00 0.54620178E+02</pdfrwt>
<pdfrwt beam="2">  1       -1 0.83229452E-04 0.54620178E+02</pdfrwt>
<totfact> 0.44140658E+05</totfact>
</mgrwt>
</event>
<event>
 4    1  0.1893769E-002  0.4628481E+02  0.7818608E-02  0.1466477E+00
          1   -1    0    0    0  501  0.00000000000E+00  0.00000000000E+00  0.52180167166E+02  0.52180167410E+02  0.50400000000E-02 0. -1.
         -1   -1    0    0  501    0 -0.00000000000E+00 -0.00000000000E+00 -0.10263878301E+02  0.10263879539E+02  0.50400000000E-02 0. -1.
          2    1    1    2    0  502  0.16758986451E+01  0.21387098689E+02  0.92468051415E+01  0.23360651499E+02  0.25500000000E-02 0.  1.
         -2    1    1    2  502    0 -0.16758986451E+01 -0.21387098689E+02  0.32669483724E+02  0.39083395450E+02  0.25500000000E-02 0.  1.
<mgrwt>
<rscale>  0 0.46284811E+02</rscale>
<asrwt>0</asrwt>
<pdfrwt beam="1">  1        1 0.80277183E-02 0.46284811E+02</pdfrwt>
<pdfrwt beam="2">  1       -1 0.15790583E-02 0.46284811E+02</pdfrwt>
<totfact> 0.56958706E+05</totfact>
</mgrwt>
</event>
<event>
 4    1  0.1893769E-002  0.5769381E+02  0.7818608E-02  0.1407773E+00
          1   -1    0    0    0  501  0.00000000000E+00  0.00000000000E+00  0.11751136540E+03  0.11751136551E+03  0.50400000000E-02 0.  1.
         -1   -1    0    0  501    0 -0.00000000000E+00 -0.00000000000E+00 -0.70813893416E+01  0.70813911352E+01  0.50400000000E-02 0.  1.
          2    1    1    2    0  502  0.76145797407E+01 -0.25382241742E+02  0.79828555240E+02  0.84112057749E+02  0.25500000000E-02 0. -1.
         -2    1    1    2  502    0 -0.76145797407E+01  0.25382241742E+02  0.30601420822E+02  0.40480698898E+02  0.25500000000E-02 0. -1.
<mgrwt>
<rscale>  0 0.57693807E+02</rscale>
<asrwt>0</asrwt>
<pdfrwt beam="1">  1        1 0.18078673E-01 0.57693807E+02</pdfrwt>
<pdfrwt beam="2">  1       -1 0.10894446E-02 0.57693807E+02</pdfrwt>
<totfact> 0.35888281E+05</totfact>
</mgrwt>
</event>
<event>
 4    1  0.1893769E-002  0.6625734E+02  0.7818608E-02  0.1373303E+00
          1   -1    0    0    0  501  0.00000000000E+00  0.00000000000E+00  0.24327609258E+01  0.24327661466E+01  0.50400000000E-02 0. -1.
         -1   -1    0    0  501    0 -0.00000000000E+00 -0.00000000000E+00 -0.45113666426E+03  0.45113666429E+03  0.50400000000E-02 0. -1.
          2    1    1    2    0  502 -0.11512596410E+02  0.30929661579E+02 -0.24410352356E+03  0.24632440818E+03  0.25500000000E-02 0.  1.
         -2    1    1    2  502    0  0.11512596410E+02 -0.30929661579E+02 -0.20460037977E+03  0.20724502226E+03  0.25500000000E-02 0.  1.
<mgrwt>
<rscale>  0 0.66257342E+02</rscale>
<asrwt>0</asrwt>
<pdfrwt beam="1">  1        1 0.37427167E-03 0.66257342E+02</pdfrwt>
<pdfrwt beam="2">  1       -1 0.69405575E-01 0.66257342E+02</pdfrwt>
<totfact> 0.11415732E+05</totfact>
</mgrwt>
</event>
<event>
 4    1  0.1893769E-002  0.5476730E+02  0.7818608E-02  0.1421203E+00
         -1   -1    0    0  501    0 -0.00000000000E+00  0.00000000000E+00  0.47714336901E+00  0.47716998668E+00  0.50400000000E-02 0. -1.
          1   -1    0    0    0  501  0.00000000000E+00 -0.00000000000E+00 -0.15715262462E+04  0.15715262462E+04  0.50400000000E-02 0. -1.
          2    1    1    2    0  502  0.25444580466E+02  0.99958806651E+01 -0.83108915275E+03  0.83153864861E+03  0.25500000000E-02 0. -1.
         -2    1    1    2  502    0 -0.25444580466E+02 -0.99958806651E+01 -0.73995995007E+03  0.74046476757E+03  0.25500000000E-02 0. -1.
<mgrwt>
<rscale>  0 0.54767299E+02</rscale>
<asrwt>0</asrwt>
<pdfrwt beam="2">  1        1 0.24176913E+00 0.54767299E+02</pdfrwt>
<pdfrwt beam="1">  1       -1 0.73409979E-04 0.54767299E+02</pdfrwt>
<totfact> 0.39627715E+05</totfact>
</mgrwt>
</event>
<event>
 4    1  0.1893769E-002  0.4933839E+02  0.7818608E-02  0.1448943E+00
         -1   -1    0    0  501    0 -0.00000000000E+00  0.00000000000E+00  0.63089505974E+01  0.63089526105E+01  0.50400000000E-02 0.  1.
          1   -1    0    0    0  501  0.00000000000E+00 -0.00000000000E+00 -0.96461218247E+02  0.96461218379E+02  0.50400000000E-02 0.  1.
          2    1    1    2    0  502 -0.74835531578E+00  0.24656671309E+02 -0.45576429300E+02  0.51823955754E+02  0.25500000000E-02 0. -1.
         -2    1    1    2  502    0  0.74835531578E+00 -0.24656671309E+02 -0.44575838350E+02  0.50946215236E+02  0.25500000000E-02 0. -1.
<mgrwt>
<rscale>  0 0.49338390E+02</rscale>
<asrwt>0</asrwt>
<pdfrwt beam="2">  1        1 0.14840186E-01 0.49338390E+02</pdfrwt>
<pdfrwt beam="1">  1       -1 0.97060802E-03 0.49338390E+02</pdfrwt>
<totfact> 0.51967826E+05</totfact>
</mgrwt>
</event>
<event>
 4    1  0.1893769E-002  0.8931116E+02  0.7818608E-02  0.1304528E+00
          1   -1    0    0    0  501  0.00000000000E+00  0.00000000000E+00  0.22123058259E+04  0.22123058259E+04  0.50400000000E-02 0. -1.
         -1   -1    0    0  501    0 -0.00000000000E+00 -0.00000000000E+00 -0.90136967822E+00  0.90138376867E+00  0.50400000000E-02 0. -1.
          2    1    1    2    0  502 -0.18782375440E+02  0.40441390532E+02  0.11655739665E+04  0.11664265751E+04  0.25500000000E-02 0.  1.
         -2    1    1    2  502    0  0.18782375440E+02 -0.40441390532E+02  0.10458304897E+04  0.10467806345E+04  0.25500000000E-02 0.  1.
<mgrwt>
<rscale>  0 0.89311164E+02</rscale>
<asrwt>0</asrwt>
<pdfrwt beam="1">  1        1 0.34035616E+00 0.89311164E+02</pdfrwt>
<pdfrwt beam="2">  1       -1 0.13867277E-03 0.89311164E+02</pdfrwt>
<totfact> 0.71210220E+04</totfact>
</mgrwt>
</event>
<event>
 4    1  0.1893769E-002  0.5839787E+02  0.7818608E-02  0.1404681E+00
         -1   -1    0    0  501    0 -0.00000000000E+00  0.00000000000E+00  0.68638305994E+02  0.68638306179E+02  0.50400000000E-02 0.  1.
          1   -1    0    0    0  501  0.00000000000E+00 -0.00000000000E+00 -0.12421313200E+02  0.12421314223E+02  0.50400000000E-02 0.  1.
          2    1    1    2    0  502  0.11728551206E+02  0.22885773108E+02  0.89120840858E+01  0.27216590040E+02  0.25500000000E-02 0. -1.
         -2    1    1    2  502    0 -0.11728551206E+02 -0.22885773108E+02  0.47304908708E+02  0.53843030362E+02  0.25500000000E-02 0. -1.
<mgrwt>
<rscale>  0 0.58397875E+02</rscale>
<asrwt>0</asrwt>
<pdfrwt beam="2">  1        1 0.19109713E-02 0.58397875E+02</pdfrwt>
<pdfrwt beam="1">  1       -1 0.10559740E-01 0.58397875E+02</pdfrwt>
<totfact> 0.26760839E+05</totfact>
</mgrwt>
</event>
<event>
 4    1  0.1893769E-002  0.4659220E+02  0.7818608E-02  0.1464640E+00
          1   -1    0    0    0  501  0.00000000000E+00  0.00000000000E+00  0.11563868592E+04  0.11563868592E+04  0.50400000000E-02 0. -1.
         -1   -1    0    0  501    0 -0.00000000000E+00 -0.00000000000E+00 -0.46930021928E+00  0.46932728177E+00  0.50400000000E-02 0. -1.
          2    1    1    2    0  502 -0.10768315342E+02  0.19369146063E+02  0.75629508729E+03  0.75661970599E+03  0.25500000000E-02 0. -1.
         -2    1    1    2  502    0  0.10768315342E+02 -0.19369146063E+02  0.39962247169E+03  0.40023648050E+03  0.25500000000E-02 0. -1.
<mgrwt>
<rscale>  0 0.46592200E+02</rscale>
<asrwt>0</asrwt>
<pdfrwt beam="1">  1        1 0.17790579E+00 0.46592200E+02</pdfrwt>
<pdfrwt beam="2">  1       -1 0.72202071E-04 0.46592200E+02</pdfrwt>
<totfact> 0.71986216E+05</totfact>
</mgrwt>
</event>
<event>
 4    1  0.1893769E-002  0.4306166E+02  0.7818608E-02  0.1486818E+00
          1   -1    0    0    0  501  0.00000000000E+00  0.00000000000E+00  0.25324627208E+04  0.25324627208E+04  0.50400000000E-02 0. -1.
         -1   -1    0    0  501    0 -0.00000000000E+00 -0.00000000000E+00 -0.18301897194E+00  0.18308835488E+00  0.50400000000E-02 0. -1.
          2    1    1    2    0  502 -0.17511648100E+01  0.21108419510E+02  0.10387734273E+04  0.10389893480E+04  0.25500000000E-02 0. -1.
         -2    1    1    2  502    0  0.17511648100E+01 -0.21108419510E+02  0.14935062745E+04  0.14936564611E+04  0.25500000000E-02 0. -1.
<mgrwt>
<rscale>  0 0.43061658E+02</rscale>
<asrwt>0</asrwt>
<pdfrwt beam="1">  1        1 0.38962249E+00 0.43061658E+02</pdfrwt>
<pdfrwt beam="2">  1       -1 0.28161175E-04 0.43061658E+02</pdfrwt>
<totfact> 0.35184315E+05</totfact>
</mgrwt>
</event>
<event>
 4    1  0.1893769E-002  0.4957266E+02  0.7818608E-02  0.1447660E+00
         -1   -1    0    0  501    0 -0.00000000000E+00  0.00000000000E+00  0.73027964757E+00  0.73029703906E+00  0.50400000000E-02 0.  1.
          1   -1    0    0    0  501  0.00000000000E+00 -0.00000000000E+00 -0.84125971891E+03  0.84125971893E+03  0.50400000000E-02 0.  1.
          2    1    1    2    0  502 -0.18941859874E+02 -0.10625496677E+02 -0.21739072554E+03  0.21847293378E+03  0.25500000000E-02 0.  1.
         -2    1    1    2  502    0  0.18941859874E+02  0.10625496677E+02 -0.62313871372E+03  0.62351708219E+03  0.25500000000E-02 0.  1.
<mgrwt>
<rscale>  0 0.49572661E+02</rscale>
<asrwt>0</asrwt>
<pdfrwt beam="2">  1        1 0.12942380E+00 0.49572661E+02</pdfrwt>
<pdfrwt beam="1">  1       -1 0.11235273E-03 0.49572661E+02</pdfrwt>
<totfact> 0.66978483E+05</totfact>
</mgrwt>
</event>
<event>
 4    1  0.1893769E-002  0.4342285E+02  0.7818608E-02  0.1484435E+00
          1   -1    0    0    0  501  0.00000000000E+00  0.00000000000E+00  0.53095911304E+03  0.53095911307E+03  0.50400000000E-02 0. -1.
         -1   -1    0    0  501    0 -0.00000000000E+00 -0.00000000000E+00 -0.88779366560E+00  0.88780797151E+00  0.50400000000E-02 0. -1.
          2    1    1    2    0  502 -0.26994407432E+01  0.20843507226E+02  0.19834577877E+03  0.19945622762E+03  0.25500000000E-02 0.  1.
         -2    1    1    2  502    0  0.26994407432E+01 -0.20843507226E+02  0.33172554061E+03  0.33239069342E+03  0.25500000000E-02 0.  1.
<mgrwt>
<rscale>  0 0.43422849E+02</rscale>
<asrwt>0</asrwt>
<pdfrwt beam="1">  1        1 0.81686158E-01 0.43422849E+02</pdfrwt>
<pdfrwt beam="2">  1       -1 0.13658451E-03 0.43422849E+02</pdfrwt>
<totfact> 0.92755678E+05</totfact>
</mgrwt>
</event>
<event>
 4    1  0.1893769E-002  0.6523544E+02  0.7818608E-02  0.1377088E+00
         -1   -1    0    0  501    0 -0.00000000000E+00  0.00000000000E+00  0.99092601425E+01  0.99092614242E+01  0.50400000000E-02 0.  1.
          1   -1    0    0    0  501  0.00000000000E+00 -0.00000000000E+00 -0.10736578606E+03  0.10736578618E+03  0.50400000000E-02 0.  1.
          2    1    1    2    0  502  0.11201822063E+02 -0.26414165833E+02 -0.20835978685E+02  0.35458806923E+02  0.25500000000E-02 0. -1.
         -2    1    1    2  502    0 -0.11201822063E+02  0.26414165833E+02 -0.76620547233E+02  0.81816240680E+02  0.25500000000E-02 0. -1.
<mgrwt>
<rscale>  0 0.65235438E+02</rscale>
<asrwt>0</asrwt>
<pdfrwt beam="2">  1        1 0.16517812E-01 0.65235438E+02</pdfrwt>
<pdfrwt beam="1">  1       -1 0.15245017E-02 0.65235438E+02</pdfrwt>
<totfact> 0.25775504E+05</totfact>
</mgrwt>
</event>
<event>
 4    1  0.1893769E-002  0.8038173E+02  0.7818608E-02  0.1327972E+00
          1   -1    0    0    0  501  0.00000000000E+00  0.00000000000E+00  0.54027621020E+01  0.54027644528E+01  0.50400000000E-02 0.  1.
         -1   -1    0    0  501    0 -0.00000000000E+00 -0.00000000000E+00 -0.29897764188E+03  0.29897764192E+03  0.50400000000E-02 0.  1.
          2    1    1    2    0  502  0.11515482732E+02 -0.30111372531E+02 -0.23766826144E+03  0.23984474896E+03  0.25500000000E-02 0. -1.
         -2    1    1    2  502    0 -0.11515482732E+02  0.30111372531E+02 -0.55906618333E+02  0.64535657417E+02  0.25500000000E-02 0. -1.
<mgrwt>
<rscale>  0 0.80381725E+02</rscale>
<asrwt>0</asrwt>
<pdfrwt beam="1">  1        1 0.83119459E-03 0.80381725E+02</pdfrwt>
<pdfrwt beam="2">  1       -1 0.45996547E-01 0.80381725E+02</pdfrwt>
<totfact> 0.84214013E+04</totfact>
</mgrwt>
</event>
<event>
 4    1  0.1893769E-002  0.4493090E+02  0.7818608E-02  0.1474773E+00
         -1   -1    0    0  501    0 -0.00000000000E+00  0.00000000000E+00  0.94190489598E+02  0.94190489733E+02  0.50400000000E-02 0.  1.
          1   -1    0    0    0  501  0.00000000000E+00 -0.00000000000E+00 -0.53582513211E+01  0.53582536914E+01  0.50400000000E-02 0.  1.
          2    1    1    2    0  502 -0.22289515774E+02 -0.70576706014E+00  0.50433335286E+02  0.55143829529E+02  0.25500000000E-02 0.  1.
         -2    1    1    2  502    0  0.22289515774E+02  0.70576706014E+00  0.38398902991E+02  0.44404913895E+02  0.25500000000E-02 0.  1.
<mgrwt>
<rscale>  0 0.44930900E+02</rscale>
<asrwt>0</asrwt>
<pdfrwt beam="2">  1        1 0.82434653E-03 0.44930900E+02</pdfrwt>
<pdfrwt beam="1">  1       -1 0.14490845E-01 0.44930900E+02</pdfrwt>
<totfact> 0.48886588E+05</totfact>
</mgrwt>
</event>
<event>
 4    1  0.1893769E-002  0.1109149E+03  0.7818608E-02  0.1258885E+00
          1   -1    0    0    0  501  0.00000000000E+00  0.00000000000E+00  0.42382033767E+01  0.42382063735E+01  0.50400000000E-02 0.  1.
         -1   -1    0    0  501    0 -0.00000000000E+00 -0.00000000000E+00 -0.72566797195E+03  0.72566797197E+03  0.50400000000E-02 0.  1.
          2    1    1    2    0  502 -0.20161849683E+02  0.41227787166E+02 -0.15583186868E+03  0.16244938264E+03  0.25500000000E-02 0.  1.
         -2    1    1    2  502    0  0.20161849683E+02 -0.41227787166E+02 -0.56559789989E+03  0.56745679570E+03  0.25500000000E-02 0.  1.
<mgrwt>
<rscale>  0 0.11091491E+03</rscale>
<asrwt>0</asrwt>
<pdfrwt beam="1">  1        1 0.65203210E-03 0.11091491E+03</pdfrwt>
<pdfrwt beam="2">  1       -1 0.11164113E+00 0.11091491E+03</pdfrwt>
<totfact> 0.21259746E+04</totfact>
</mgrwt>
</event>
<event>
 4    1  0.1893769E-002  0.4320201E+02  0.7818608E-02  0.1485889E+00
         -1   -1    0    0  501    0 -0.00000000000E+00  0.00000000000E+00  0.13146855023E+03  0.13146855033E+03  0.50400000000E-02 0. -1.
          1   -1    0    0    0  501  0.00000000000E+00 -0.00000000000E+00 -0.35491624355E+01  0.35491660140E+01  0.50400000000E-02 0. -1.
          2    1    1    2    0  502 -0.16720091258E+02  0.13283901933E+02  0.53794183690E+02  0.57877782504E+02  0.25500000000E-02 0.  1.
         -2    1    1    2  502    0  0.16720091258E+02 -0.13283901933E+02  0.74125204109E+02  0.77139933841E+02  0.25500000000E-02 0.  1.
<mgrwt>
<rscale>  0 0.43202013E+02</rscale>
<asrwt>0</asrwt>
<pdfrwt beam="2">  1        1 0.54602533E-03 0.43202013E+02</pdfrwt>
<pdfrwt beam="1">  1       -1 0.20225929E-01 0.43202013E+02</pdfrwt>
<totfact> 0.50705474E+05</totfact>
</mgrwt>
</event>
<event>
 4    1  0.1893769E-002  0.4129395E+02  0.7818608E-02  0.1498900E+00
          1   -1    0    0    0  501  0.00000000000E+00  0.00000000000E+00  0.14965885394E+01  0.14965970259E+01  0.50400000000E-02 0.  1.
         -1   -1    0    0  501    0 -0.00000000000E+00 -0.00000000000E+00 -0.28484545358E+03  0.28484545362E+03  0.50400000000E-02 0.  1.
          2    1    1    2    0  502 -0.97238955442E+01  0.18193203743E+02 -0.14768305660E+03  0.14911684017E+03  0.25500000000E-02 0.  1.
         -2    1    1    2  502    0  0.97238955442E+01 -0.18193203743E+02 -0.13566580844E+03  0.13722521048E+03  0.25500000000E-02 0.  1.
<mgrwt>
<rscale>  0 0.41293954E+02</rscale>
<asrwt>0</asrwt>
<pdfrwt beam="1">  1        1 0.23024527E-03 0.41293954E+02</pdfrwt>
<pdfrwt beam="2">  1       -1 0.43822335E-01 0.41293954E+02</pdfrwt>
<totfact> 0.45729506E+05</totfact>
</mgrwt>
</event>
<event>
 4    1  0.1893769E-002  0.6598582E+02  0.7818608E-02  0.1374301E+00
          1   -1    0    0    0  501  0.00000000000E+00  0.00000000000E+00  0.17939198457E+04  0.17939198457E+04  0.50400000000E-02 0.  1.
         -1   -1    0    0  501    0 -0.00000000000E+00 -0.00000000000E+00 -0.60677918238E+00  0.60680011352E+00  0.50400000000E-02 0.  1.
          2    1    1    2    0  502  0.28836523185E+01 -0.31759748814E+02  0.11266726720E+04  0.11271239094E+04  0.25500000000E-02 0.  1.
         -2    1    1    2  502    0 -0.28836523185E+01  0.31759748814E+02  0.66664039442E+03  0.66740273642E+03  0.25500000000E-02 0.  1.
<mgrwt>
<rscale>  0 0.65985817E+02</rscale>
<asrwt>0</asrwt>
<pdfrwt beam="1">  1        1 0.27599243E+00 0.65985817E+02</pdfrwt>
<pdfrwt beam="2">  1       -1 0.93350643E-04 0.65985817E+02</pdfrwt>
<totfact> 0.21495136E+05</totfact>
</mgrwt>
</event>
<event>
 4    1  0.1893769E-002  0.4240685E+02  0.7818608E-02  0.1491211E+00
          1   -1    0    0    0  501  0.00000000000E+00  0.00000000000E+00  0.11508420379E+02  0.11508421482E+02  0.50400000000E-02 0.  1.
         -1   -1    0    0  501    0 -0.00000000000E+00 -0.00000000000E+00 -0.39065764857E+02  0.39065765182E+02  0.50400000000E-02 0.  1.
          2    1    1    2    0  502  0.16361936738E+02  0.13044230836E+02 -0.96958261037E+01  0.23062393247E+02  0.25500000000E-02 0.  1.
         -2    1    1    2  502    0 -0.16361936738E+02 -0.13044230836E+02 -0.17861518375E+02  0.27511793418E+02  0.25500000000E-02 0.  1.
<mgrwt>
<rscale>  0 0.42406852E+02</rscale>
<asrwt>0</asrwt>
<pdfrwt beam="1">  1        1 0.17705263E-02 0.42406852E+02</pdfrwt>
<pdfrwt beam="2">  1       -1 0.60101177E-02 0.42406852E+02</pdfrwt>
<totfact> 0.62615000E+05</totfact>
</mgrwt>
</event>
<event>
 4    1  0.1893769E-002  0.4645400E+02  0.7818608E-02  0.1465464E+00
         -1   -1    0    0  501    0 -0.00000000000E+00  0.00000000000E+00  0.16492112336E+01  0.16492189347E+01  0.50400000000E-02 0. -1.
          1   -1    0    0    0  501  0.00000000000E+00 -0.00000000000E+00 -0.32712136438E+03  0.32712136442E+03  0.50400000000E-02 0. -1.
          2    1    1    2    0  502  0.75819857756E+00 -0.20964747463E+02 -0.92176062866E+02  0.94533179748E+02  0.25500000000E-02 0.  1.
         -2    1    1    2  502    0 -0.75819857756E+00  0.20964747463E+02 -0.23329609028E+03  0.23423740361E+03  0.25500000000E-02 0.  1.
<mgrwt>
<rscale>  0 0.46453999E+02</rscale>
<asrwt>0</asrwt>
<pdfrwt beam="2">  1        1 0.50326313E-01 0.46453999E+02</pdfrwt>
<pdfrwt beam="1">  1       -1 0.25372566E-03 0.46453999E+02</pdfrwt>
<totfact> 0.73527927E+05</totfact>
</mgrwt>
</event>
<event>
 4    1  0.1893769E-002  0.5140784E+02  0.7818608E-02  0.1437893E+00
          1   -1    0    0    0  501  0.00000000000E+00  0.00000000000E+00  0.58238338653E+03  0.58238338656E+03  0.50400000000E-02 0. -1.
         -1   -1    0    0  501    0 -0.00000000000E+00 -0.00000000000E+00 -0.11344556883E+01  0.11344668837E+01  0.50400000000E-02 0. -1.
          2    1    1    2    0  502 -0.28738869782E+01 -0.23585481096E+02  0.17931915756E+03  0.18088641303E+03  0.25500000000E-02 0. -1.
         -2    1    1    2  502    0  0.28738869782E+01  0.23585481096E+02  0.40192977329E+03  0.40263144041E+03  0.25500000000E-02 0. -1.
<mgrwt>
<rscale>  0 0.51407837E+02</rscale>
<asrwt>0</asrwt>
<pdfrwt beam="1">  1        1 0.89597683E-01 0.51407837E+02</pdfrwt>
<pdfrwt beam="2">  1       -1 0.17453204E-03 0.51407837E+02</pdfrwt>
<totfact> 0.61623972E+05</totfact>
</mgrwt>
</event>
<event>
 4    1  0.1893769E-002  0.4342007E+02  0.7818608E-02  0.1484453E+00
         -1   -1    0    0  501    0 -0.00000000000E+00  0.00000000000E+00  0.17416011075E+02  0.17416011805E+02  0.50400000000E-02 0.  1.
          1   -1    0    0    0  501  0.00000000000E+00 -0.00000000000E+00 -0.27062773640E+02  0.27062774110E+02  0.50400000000E-02 0.  1.
          2    1    1    2    0  502 -0.19652359175E+02 -0.89680460374E+01 -0.26062330894E+01  0.21758527714E+02  0.25500000000E-02 0. -1.
         -2    1    1    2  502    0  0.19652359175E+02  0.89680460374E+01 -0.70405294757E+01  0.22720258200E+02  0.25500000000E-02 0. -1.
<mgrwt>
<rscale>  0 0.43420069E+02</rscale>
<asrwt>0</asrwt>
<pdfrwt beam="2">  1        1 0.41635037E-02 0.43420069E+02</pdfrwt>
<pdfrwt beam="1">  1       -1 0.26793864E-02 0.43420069E+02</pdfrwt>
<totfact> 0.63273889E+05</totfact>
</mgrwt>
</event>
<event>
 4    1  0.1893769E-002  0.5253575E+02  0.7818608E-02  0.1432125E+00
         -1   -1    0    0  501    0 -0.00000000000E+00  0.00000000000E+00  0.20558855890E+01  0.20558917667E+01  0.50400000000E-02 0.  1.
          1   -1    0    0    0  501  0.00000000000E+00 -0.00000000000E+00 -0.33562183894E+03  0.33562183898E+03  0.50400000000E-02 0.  1.
          2    1    1    2    0  502  0.13521042071E+01 -0.26023627422E+02 -0.14551965571E+03  0.14783446004E+03  0.25500000000E-02 0. -1.
         -2    1    1    2  502    0 -0.13521042071E+01  0.26023627422E+02 -0.18804629764E+03  0.18984327071E+03  0.25500000000E-02 0. -1.
<mgrwt>
<rscale>  0 0.52535746E+02</rscale>
<asrwt>0</asrwt>
<pdfrwt beam="2">  1        1 0.51634086E-01 0.52535746E+02</pdfrwt>
<pdfrwt beam="1">  1       -1 0.31629083E-03 0.52535746E+02</pdfrwt>
<totfact> 0.54376545E+05</totfact>
</mgrwt>
</event>
<event>
 4    1  0.1893769E-002  0.5547126E+02  0.7818608E-02  0.1417883E+00
         -1   -1    0    0  501    0 -0.00000000000E+00  0.00000000000E+00  0.14478057380E+01  0.14478145104E+01  0.50400000000E-02 0.  1.
          1   -1    0    0    0  501  0.00000000000E+00 -0.00000000000E+00 -0.53133012541E+03  0.53133012543E+03  0.50400000000E-02 0.  1.
          2    1    1    2    0  502 -0.67118233014E+01 -0.22042160573E+02 -0.41322528159E+03  0.41386717527E+03  0.25500000000E-02 0.  1.
         -2    1    1    2  502    0  0.67118233014E+01  0.22042160573E+02 -0.11665703808E+03  0.11891076467E+03  0.25500000000E-02 0.  1.
<mgrwt>
<rscale>  0 0.55471259E+02</rscale>
<asrwt>0</asrwt>
<pdfrwt beam="2">  1        1 0.81742941E-01 0.55471259E+02</pdfrwt>
<pdfrwt beam="1">  1       -1 0.22274045E-03 0.55471259E+02</pdfrwt>
<totfact> 0.50579782E+05</totfact>
</mgrwt>
</event>
<event>
 4    1  0.1893769E-002  0.5870519E+02  0.7818608E-02  0.1403347E+00
         -1   -1    0    0  501    0 -0.00000000000E+00  0.00000000000E+00  0.14983764367E+01  0.14983849130E+01  0.50400000000E-02 0.  1.
          1   -1    0    0    0  501  0.00000000000E+00 -0.00000000000E+00 -0.57500390565E+03  0.57500390567E+03  0.50400000000E-02 0.  1.
          2    1    1    2    0  502  0.19903079916E+02  0.21544403693E+02 -0.29786674400E+03  0.29930735225E+03  0.25500000000E-02 0. -1.
         -2    1    1    2  502    0 -0.19903079916E+02 -0.21544403693E+02 -0.27563878521E+03  0.27719493834E+03  0.25500000000E-02 0. -1.
<mgrwt>
<rscale>  0 0.58705187E+02</rscale>
<asrwt>0</asrwt>
<pdfrwt beam="2">  1        1 0.88461964E-01 0.58705187E+02</pdfrwt>
<pdfrwt beam="1">  1       -1 0.23052056E-03 0.58705187E+02</pdfrwt>
<totfact> 0.44131930E+05</totfact>
</mgrwt>
</event>
<event>
 4    1  0.1893769E-002  0.7342749E+02  0.7818608E-02  0.1348811E+00
         -1   -1    0    0  501    0 -0.00000000000E+00  0.00000000000E+00  0.32987259354E+02  0.32987259739E+02  0.50400000000E-02 0.  1.
          1   -1    0    0    0  501  0.00000000000E+00 -0.00000000000E+00 -0.40861198624E+02  0.40861198935E+02  0.50400000000E-02 0.  1.
          2    1    1    2    0  502  0.11129631247E+02  0.17491276240E+02 -0.34410610183E+02  0.40173418275E+02  0.25500000000E-02 0. -1.
         -2    1    1    2  502    0 -0.11129631247E+02 -0.17491276240E+02  0.26536670913E+02  0.33675040399E+02  0.25500000000E-02 0. -1.
<mgrwt>
<rscale>  0 0.73427488E+02</rscale>
<asrwt>0</asrwt>
<pdfrwt beam="2">  1        1 0.62863383E-02 0.73427488E+02</pdfrwt>
<pdfrwt beam="1">  1       -1 0.50749631E-02 0.73427488E+02</pdfrwt>
<totfact> 0.16569557E+05</totfact>
</mgrwt>
</event>
<event>
 4    1  0.1893769E-002  0.5128320E+02  0.7818608E-02  0.1438541E+00
          1   -1    0    0    0  501  0.00000000000E+00  0.00000000000E+00  0.79325183065E+02  0.79325183225E+02  0.50400000000E-02 0.  1.
         -1   -1    0    0  501    0 -0.00000000000E+00 -0.00000000000E+00 -0.82885607062E+01  0.82885622385E+01  0.50400000000E-02 0.  1.
          2    1    1    2    0  502  0.22684072428E+02 -0.11080078813E+02  0.43188451941E+02  0.50025770119E+02  0.25500000000E-02 0. -1.
         -2    1    1    2  502    0 -0.22684072428E+02  0.11080078813E+02  0.27848170418E+02  0.37587975345E+02  0.25500000000E-02 0. -1.
<mgrwt>
<rscale>  0 0.51283201E+02</rscale>
<asrwt>0</asrwt>
<pdfrwt beam="1">  1        1 0.12203874E-01 0.51283201E+02</pdfrwt>
<pdfrwt beam="2">  1       -1 0.12751633E-02 0.51283201E+02</pdfrwt>
<totfact> 0.45977866E+05</totfact>
</mgrwt>
</event>
<event>
 4    1  0.1893769E-002  0.5355035E+02  0.7818608E-02  0.1427081E+00
          1   -1    0    0    0  501  0.00000000000E+00  0.00000000000E+00  0.81184824081E+02  0.81184824238E+02  0.50400000000E-02 0. -1.
         -1   -1    0    0  501    0 -0.00000000000E+00 -0.00000000000E+00 -0.88305916123E+01  0.88305930505E+01  0.50400000000E-02 0. -1.
          2    1    1    2    0  502 -0.25244531828E+02 -0.82693924400E+01  0.30541334115E+02  0.40477676991E+02  0.25500000000E-02 0.  1.
         -2    1    1    2  502    0  0.25244531828E+02  0.82693924400E+01  0.41812898354E+02  0.49537740298E+02  0.25500000000E-02 0.  1.
<mgrwt>
<rscale>  0 0.53550354E+02</rscale>
<asrwt>0</asrwt>
<pdfrwt beam="1">  1        1 0.12489974E-01 0.53550354E+02</pdfrwt>
<pdfrwt beam="2">  1       -1 0.13585526E-02 0.53550354E+02</pdfrwt>
<totfact> 0.41294347E+05</totfact>
</mgrwt>
</event>
<event>
 4    1  0.1893769E-002  0.4650035E+02  0.7818608E-02  0.1465187E+00
          1   -1    0    0    0  501  0.00000000000E+00  0.00000000000E+00  0.26891673581E+03  0.26891673586E+03  0.50400000000E-02 0.  1.
         -1   -1    0    0  501    0 -0.00000000000E+00 -0.00000000000E+00 -0.20101753349E+01  0.20101816531E+01  0.50400000000E-02 0.  1.
          2    1    1    2    0  502  0.20383107839E+02 -0.11148740890E+02  0.12822533871E+03  0.13031309605E+03  0.25500000000E-02 0. -1.
         -2    1    1    2  502    0 -0.20383107839E+02  0.11148740890E+02  0.13868122177E+03  0.14061382146E+03  0.25500000000E-02 0. -1.
<mgrwt>
<rscale>  0 0.46500351E+02</rscale>
<asrwt>0</asrwt>
<pdfrwt beam="1">  1        1 0.41371781E-01 0.46500351E+02</pdfrwt>
<pdfrwt beam="2">  1       -1 0.30925842E-03 0.46500351E+02</pdfrwt>
<totfact> 0.70907532E+05</totfact>
</mgrwt>
</event>
<event>
 4    1  0.1893769E-002  0.4517041E+02  0.7818608E-02  0.1473281E+00
         -1   -1    0    0  501    0 -0.00000000000E+00  0.00000000000E+00  0.12579027001E+01  0.12579127969E+01  0.50400000000E-02 0. -1.
          1   -1    0    0    0  501  0.00000000000E+00 -0.00000000000E+00 -0.40550786375E+03  0.40550786378E+03  0.50400000000E-02 0. -1.
          2    1    1    2    0  502  0.17252144224E+02  0.13492419228E+02 -0.25178375061E+03  0.25273452264E+03  0.25500000000E-02 0. -1.
         -2    1    1    2  502    0 -0.17252144224E+02 -0.13492419228E+02 -0.15246621043E+03  0.15403125393E+03  0.25500000000E-02 0. -1.
<mgrwt>
<rscale>  0 0.45170411E+02</rscale>
<asrwt>0</asrwt>
<pdfrwt beam="2">  1        1 0.62385722E-01 0.45170411E+02</pdfrwt>
<pdfrwt beam="1">  1       -1 0.19352459E-03 0.45170411E+02</pdfrwt>
<totfact> 0.81507126E+05</totfact>
</mgrwt>
</event>
<event>
 4    1  0.1893769E-002  0.4904870E+02  0.7818608E-02  0.1450541E+00
         -1   -1    0    0  501    0 -0.00000000000E+00  0.00000000000E+00  0.33187327571E+01  0.33187365841E+01  0.50400000000E-02 0. -1.
          1   -1    0    0    0  501  0.00000000000E+00 -0.00000000000E+00 -0.18122681318E+03  0.18122681325E+03  0.50400000000E-02 0. -1.
          2    1    1    2    0  502 -0.21936652263E+02 -0.10623529202E+02 -0.99166725900E+02  0.10211814539E+03  0.25500000000E-02 0. -1.
         -2    1    1    2  502    0  0.21936652263E+02  0.10623529202E+02 -0.78741354524E+02  0.82427404448E+02  0.25500000000E-02 0. -1.
<mgrwt>
<rscale>  0 0.49048699E+02</rscale>
<asrwt>0</asrwt>
<pdfrwt beam="2">  1        1 0.27881041E-01 0.49048699E+02</pdfrwt>
<pdfrwt beam="1">  1       -1 0.51057471E-03 0.49048699E+02</pdfrwt>
<totfact> 0.57988159E+05</totfact>
</mgrwt>
</event>
<event>
 4    1  0.1893769E-002  0.5838537E+02  0.7818608E-02  0.1404735E+00
         -1   -1    0    0  501    0 -0.00000000000E+00  0.00000000000E+00  0.49393729827E+00  0.49396301098E+00  0.50400000000E-02 0. -1.
          1   -1    0    0    0  501  0.00000000000E+00 -0.00000000000E+00 -0.17253012411E+04  0.17253012411E+04  0.50400000000E-02 0. -1.
          2    1    1    2    0  502 -0.29184536387E+02 -0.17481601616E+00 -0.88212389294E+03  0.88260655460E+03  0.25500000000E-02 0.  1.
         -2    1    1    2  502    0  0.29184536387E+02  0.17481601616E+00 -0.84268341091E+03  0.84318864956E+03  0.25500000000E-02 0.  1.
<mgrwt>
<rscale>  0 0.58385369E+02</rscale>
<asrwt>0</asrwt>
<pdfrwt beam="2">  1        1 0.26542614E+00 0.58385369E+02</pdfrwt>
<pdfrwt beam="1">  1       -1 0.75993714E-04 0.58385369E+02</pdfrwt>
<totfact> 0.30729513E+05</totfact>
</mgrwt>
</event>
<event>
 4    1  0.1893769E-002  0.4723361E+02  0.7818608E-02  0.1460861E+00
         -1   -1    0    0  501    0 -0.00000000000E+00  0.00000000000E+00  0.33402773097E+00  0.33406575200E+00  0.50400000000E-02 0.  1.
          1   -1    0    0    0  501  0.00000000000E+00 -0.00000000000E+00 -0.16696871486E+04  0.16696871486E+04  0.50400000000E-02 0.  1.
          2    1    1    2    0  502 -0.21799397389E+02 -0.45000317832E+01 -0.11137242263E+04  0.11139466398E+04  0.25500000000E-02 0.  1.
         -2    1    1    2  502    0  0.21799397389E+02  0.45000317832E+01 -0.55562889452E+03  0.55607457453E+03  0.25500000000E-02 0.  1.
<mgrwt>
<rscale>  0 0.47233614E+02</rscale>
<asrwt>0</asrwt>
<pdfrwt beam="2">  1        1 0.25686827E+00 0.47233614E+02</pdfrwt>
<pdfrwt beam="1">  1       -1 0.51393144E-04 0.47233614E+02</pdfrwt>
<totfact> 0.54172847E+05</totfact>
</mgrwt>
</event>
<event>
 4    1  0.1893769E-002  0.4560510E+02  0.7818608E-02  0.1470599E+00
         -1   -1    0    0  501    0 -0.00000000000E+00  0.00000000000E+00  0.60842388943E+00  0.60844476399E+00  0.50400000000E-02 0.  1.
          1   -1    0    0    0  501  0.00000000000E+00 -0.00000000000E+00 -0.85458088540E+03  0.85458088541E+03  0.50400000000E-02 0.  1.
          2    1    1    2    0  502  0.16937925748E+02  0.11229012666E+02 -0.62093386818E+03  0.62126632993E+03  0.25500000000E-02 0.  1.
         -2    1    1    2  502    0 -0.16937925748E+02 -0.11229012666E+02 -0.23303859333E+03  0.23392300024E+03  0.25500000000E-02 0.  1.
<mgrwt>
<rscale>  0 0.45605103E+02</rscale>
<asrwt>0</asrwt>
<pdfrwt beam="2">  1        1 0.13147302E+00 0.45605103E+02</pdfrwt>
<pdfrwt beam="1">  1       -1 0.93605966E-04 0.45605103E+02</pdfrwt>
<totfact> 0.82110005E+05</totfact>
</mgrwt>
</event>
<event>
 4    1  0.1893769E-002  0.4832572E+02  0.7818608E-02  0.1454587E+00
          1   -1    0    0    0  501  0.00000000000E+00  0.00000000000E+00  0.12550401706E+03  0.12550401716E+03  0.50400000000E-02 0. -1.
         -1   -1    0    0  501    0 -0.00000000000E+00 -0.00000000000E+00 -0.46519923577E+01  0.46519950879E+01  0.50400000000E-02 0. -1.
          2    1    1    2    0  502 -0.82824160165E+01  0.18866404012E+02  0.26432221607E+02  0.33514205361E+02  0.25500000000E-02 0.  1.
         -2    1    1    2  502    0  0.82824160165E+01 -0.18866404012E+02  0.94419803091E+02  0.96641806883E+02  0.25500000000E-02 0.  1.
<mgrwt>
<rscale>  0 0.48325725E+02</rscale>
<asrwt>0</asrwt>
<pdfrwt beam="1">  1        1 0.19308309E-01 0.48325725E+02</pdfrwt>
<pdfrwt beam="2">  1       -1 0.71569142E-03 0.48325725E+02</pdfrwt>
<totfact> 0.56788420E+05</totfact>
</mgrwt>
</event>
<event>
 4    1  0.1893769E-002  0.7571289E+02  0.7818608E-02  0.1341678E+00
         -1   -1    0    0  501    0 -0.00000000000E+00  0.00000000000E+00  0.60868194302E+02  0.60868194511E+02  0.50400000000E-02 0. -1.
          1   -1    0    0    0  501  0.00000000000E+00 -0.00000000000E+00 -0.23544488616E+02  0.23544489156E+02  0.50400000000E-02 0. -1.
          2    1    1    2    0  502 -0.25691500166E+02 -0.16625570713E+01  0.49605102041E+02  0.55888133193E+02  0.25500000000E-02 0.  1.
         -2    1    1    2  502    0  0.25691500166E+02  0.16625570713E+01 -0.12281396355E+02  0.28524550474E+02  0.25500000000E-02 0.  1.
<mgrwt>
<rscale>  0 0.75712893E+02</rscale>
<asrwt>0</asrwt>
<pdfrwt beam="2">  1        1 0.36222292E-02 0.75712893E+02</pdfrwt>
<pdfrwt beam="1">  1       -1 0.93643374E-02 0.75712893E+02</pdfrwt>
<totfact> 0.14166340E+05</totfact>
</mgrwt>
</event>
<event>
 4    1  0.1893769E-002  0.4229464E+02  0.7818608E-02  0.1491974E+00
          1   -1    0    0    0  501  0.00000000000E+00  0.00000000000E+00  0.78181196520E+03  0.78181196521E+03  0.50400000000E-02 0.  1.
         -1   -1    0    0  501    0 -0.00000000000E+00 -0.00000000000E+00 -0.57200514355E+00  0.57202734711E+00  0.50400000000E-02 0.  1.
          2    1    1    2    0  502 -0.19157919718E+02 -0.88224863241E+01  0.41895940268E+03  0.41948997992E+03  0.25500000000E-02 0. -1.
         -2    1    1    2  502    0  0.19157919718E+02  0.88224863241E+01  0.36228055737E+03  0.36289401264E+03  0.25500000000E-02 0. -1.
<mgrwt>
<rscale>  0 0.42294641E+02</rscale>
<asrwt>0</asrwt>
<pdfrwt beam="1">  1        1 0.12027847E+00 0.42294641E+02</pdfrwt>
<pdfrwt beam="2">  1       -1 0.88002713E-04 0.42294641E+02</pdfrwt>
<totfact> 0.99603029E+05</totfact>
</mgrwt>
</event>
<event>
 4    1  0.1893769E-002  0.5544223E+02  0.7818608E-02  0.1418019E+00
         -1   -1    0    0  501    0 -0.00000000000E+00  0.00000000000E+00  0.79194302813E+02  0.79194302973E+02  0.50400000000E-02 0. -1.
          1   -1    0    0    0  501  0.00000000000E+00 -0.00000000000E+00 -0.97034784879E+01  0.97034797968E+01  0.50400000000E-02 0. -1.
          2    1    1    2    0  502  0.44469296895E+01  0.24776918201E+02  0.53361058218E+02  0.59000622030E+02  0.25500000000E-02 0.  1.
         -2    1    1    2  502    0 -0.44469296895E+01 -0.24776918201E+02  0.16129766106E+02  0.29897160740E+02  0.25500000000E-02 0.  1.
<mgrwt>
<rscale>  0 0.55442232E+02</rscale>
<asrwt>0</asrwt>
<pdfrwt beam="2">  1        1 0.14928430E-02 0.55442232E+02</pdfrwt>
<pdfrwt beam="1">  1       -1 0.12183739E-01 0.55442232E+02</pdfrwt>
<totfact> 0.29858260E+05</totfact>
</mgrwt>
</event>
<event>
 4    1  0.1893769E-002  0.7094430E+02  0.7818608E-02  0.1356911E+00
         -1   -1    0    0  501    0 -0.00000000000E+00  0.00000000000E+00  0.64786784515E+02  0.64786784711E+02  0.50400000000E-02 0.  1.
          1   -1    0    0    0  501  0.00000000000E+00 -0.00000000000E+00 -0.19421759107E+02  0.19421759761E+02  0.50400000000E-02 0.  1.
          2    1    1    2    0  502  0.33057701034E+02  0.11867947978E+02  0.28571300719E+02  0.45276693985E+02  0.25500000000E-02 0. -1.
         -2    1    1    2  502    0 -0.33057701034E+02 -0.11867947978E+02  0.16793724689E+02  0.38931850487E+02  0.25500000000E-02 0. -1.
<mgrwt>
<rscale>  0 0.70944298E+02</rscale>
<asrwt>0</asrwt>
<pdfrwt beam="2">  1        1 0.29879630E-02 0.70944298E+02</pdfrwt>
<pdfrwt beam="1">  1       -1 0.99671977E-02 0.70944298E+02</pdfrwt>
<totfact> 0.16547384E+05</totfact>
</mgrwt>
</event>
<event>
 4    1  0.1893769E-002  0.6137867E+02  0.7818608E-02  0.1392136E+00
         -1   -1    0    0  501    0 -0.00000000000E+00  0.00000000000E+00  0.37505931232E+01  0.37505965096E+01  0.50400000000E-02 0.  1.
          1   -1    0    0    0  501  0.00000000000E+00 -0.00000000000E+00 -0.25111623099E+03  0.25111623104E+03  0.50400000000E-02 0.  1.
          2    1    1    2    0  502 -0.30192374919E+01  0.25123547955E+02 -0.51578912353E+02  0.57451655006E+02  0.25500000000E-02 0. -1.
         -2    1    1    2  502    0  0.30192374919E+01 -0.25123547955E+02 -0.19578672552E+03  0.19741517255E+03  0.25500000000E-02 0. -1.
<mgrwt>
<rscale>  0 0.61378669E+02</rscale>
<asrwt>0</asrwt>
<pdfrwt beam="2">  1        1 0.38633253E-01 0.61378669E+02</pdfrwt>
<pdfrwt beam="1">  1       -1 0.57701479E-03 0.61378669E+02</pdfrwt>
<totfact> 0.34832451E+05</totfact>
</mgrwt>
</event>
<event>
 4    1  0.1893769E-002  0.7001629E+02  0.7818608E-02  0.1360038E+00
         -1   -1    0    0  501    0 -0.00000000000E+00  0.00000000000E+00  0.59328676539E+02  0.59328676754E+02  0.50400000000E-02 0. -1.
          1   -1    0    0    0  501  0.00000000000E+00 -0.00000000000E+00 -0.20657297832E+02  0.20657298447E+02  0.50400000000E-02 0. -1.
          2    1    1    2    0  502 -0.26652067104E+02  0.56438889209E+01 -0.57809132696E+01  0.27849688110E+02  0.25500000000E-02 0. -1.
         -2    1    1    2  502    0  0.26652067104E+02 -0.56438889209E+01  0.44452291977E+02  0.52136287091E+02  0.25500000000E-02 0. -1.
<mgrwt>
<rscale>  0 0.70016289E+02</rscale>
<asrwt>0</asrwt>
<pdfrwt beam="2">  1        1 0.31780459E-02 0.70016289E+02</pdfrwt>
<pdfrwt beam="1">  1       -1 0.91274886E-02 0.70016289E+02</pdfrwt>
<totfact> 0.17313723E+05</totfact>
</mgrwt>
</event>
<event>
 4    1  0.1893769E-002  0.6108115E+02  0.7818608E-02  0.1393350E+00
          1   -1    0    0    0  501  0.00000000000E+00  0.00000000000E+00  0.12863054335E+02  0.12863055323E+02  0.50400000000E-02 0.  1.
         -1   -1    0    0  501    0 -0.00000000000E+00 -0.00000000000E+00 -0.72512078089E+02  0.72512078264E+02  0.50400000000E-02 0.  1.
          2    1    1    2    0  502  0.19734245300E+02  0.21811062470E+02 -0.18335525644E+02  0.34660559585E+02  0.25500000000E-02 0.  1.
         -2    1    1    2  502    0 -0.19734245300E+02 -0.21811062470E+02 -0.41313498110E+02  0.50714574002E+02  0.25500000000E-02 0.  1.
<mgrwt>
<rscale>  0 0.61081154E+02</rscale>
<asrwt>0</asrwt>
<pdfrwt beam="1">  1        1 0.19789316E-02 0.61081154E+02</pdfrwt>
<pdfrwt beam="2">  1       -1 0.11155704E-01 0.61081154E+02</pdfrwt>
<totfact> 0.23737644E+05</totfact>
</mgrwt>
</event>
<event>
 4    1  0.1893769E-002  0.4101965E+02  0.7818608E-02  0.1500839E+00
         -1   -1    0    0  501    0 -0.00000000000E+00  0.00000000000E+00  0.88781137872E+02  0.88781138015E+02  0.50400000000E-02 0.  1.
          1   -1    0    0    0  501  0.00000000000E+00 -0.00000000000E+00 -0.47380871178E+01  0.47380897984E+01  0.50400000000E-02 0.  1.
          2    1    1    2    0  502  0.20439880832E+01 -0.19902529869E+02  0.31733220857E+02  0.37513809390E+02  0.25500000000E-02 0.  1.
         -2    1    1    2  502    0 -0.20439880832E+01  0.19902529869E+02  0.52309829897E+02  0.56005418424E+02  0.25500000000E-02 0.  1.
<mgrwt>
<rscale>  0 0.41019649E+02</rscale>
<asrwt>0</asrwt>
<pdfrwt beam="2">  1        1 0.72893671E-03 0.41019649E+02</pdfrwt>
<pdfrwt beam="1">  1       -1 0.13658637E-01 0.41019649E+02</pdfrwt>
<totfact> 0.61584476E+05</totfact>
</mgrwt>
</event>
<event>
 4    1  0.1893769E-002  0.4727350E+02  0.7818608E-02  0.1460628E+00
          1   -1    0    0    0  501  0.00000000000E+00  0.00000000000E+00  0.63666095203E+03  0.63666095205E+03  0.50400000000E-02 0. -1.
         -1   -1    0    0  501    0 -0.00000000000E+00 -0.00000000000E+00 -0.87753363850E+00  0.87754811167E+00  0.50400000000E-02 0. -1.
          2    1    1    2    0  502  0.20258085291E+02  0.12161758378E+02  0.30938762637E+03  0.31028857817E+03  0.25500000000E-02 0. -1.
         -2    1    1    2  502    0 -0.20258085291E+02 -0.12161758378E+02  0.32639579202E+03  0.32724992199E+03  0.25500000000E-02 0. -1.
<mgrwt>
<rscale>  0 0.47273503E+02</rscale>
<asrwt>0</asrwt>
<pdfrwt beam="1">  1        1 0.97948013E-01 0.47273503E+02</pdfrwt>
<pdfrwt beam="2">  1       -1 0.13500605E-03 0.47273503E+02</pdfrwt>
<totfact> 0.76161936E+05</totfact>
</mgrwt>
</event>
<event>
 4    1  0.1893769E-002  0.8054571E+02  0.7818608E-02  0.1327510E+00
          1   -1    0    0    0  501  0.00000000000E+00  0.00000000000E+00  0.65838530935E+02  0.65838531128E+02  0.50400000000E-02 0.  1.
         -1   -1    0    0  501    0 -0.00000000000E+00 -0.00000000000E+00 -0.24634551208E+02  0.24634551723E+02  0.50400000000E-02 0.  1.
          2    1    1    2    0  502 -0.53127710919E+01  0.37897298952E+02  0.34697425600E+02  0.51655998241E+02  0.25500000000E-02 0. -1.
         -2    1    1    2  502    0  0.53127710919E+01 -0.37897298952E+02  0.65065541275E+01  0.38817084610E+02  0.25500000000E-02 0. -1.
<mgrwt>
<rscale>  0 0.80545706E+02</rscale>
<asrwt>0</asrwt>
<pdfrwt beam="1">  1        1 0.10129005E-01 0.80545706E+02</pdfrwt>
<pdfrwt beam="2">  1       -1 0.37899310E-02 0.80545706E+02</pdfrwt>
<totfact> 0.13724119E+05</totfact>
</mgrwt>
</event>
<event>
 4    1  0.1893769E-002  0.5900481E+02  0.7818608E-02  0.1402056E+00
          1   -1    0    0    0  501  0.00000000000E+00  0.00000000000E+00  0.93633377575E+01  0.93633391139E+01  0.50400000000E-02 0.  1.
         -1   -1    0    0  501    0 -0.00000000000E+00 -0.00000000000E+00 -0.92957428763E+02  0.92957428900E+02  0.50400000000E-02 0.  1.
          2    1    1    2    0  502 -0.44675188183E+01 -0.29093296815E+02 -0.45270993587E+02  0.53998532488E+02  0.25500000000E-02 0.  1.
         -2    1    1    2  502    0  0.44675188183E+01  0.29093296815E+02 -0.38323097419E+02  0.48322235526E+02  0.25500000000E-02 0.  1.
<mgrwt>
<rscale>  0 0.59004809E+02</rscale>
<asrwt>0</asrwt>
<pdfrwt beam="1">  1        1 0.14405137E-02 0.59004809E+02</pdfrwt>
<pdfrwt beam="2">  1       -1 0.14301142E-01 0.59004809E+02</pdfrwt>
<totfact> 0.24936275E+05</totfact>
</mgrwt>
</event>
<event>
 4    1  0.1893769E-002  0.5815167E+02  0.7818608E-02  0.1405756E+00
          1   -1    0    0    0  501  0.00000000000E+00  0.00000000000E+00  0.16020766490E+01  0.16020845767E+01  0.50400000000E-02 0. -1.
         -1   -1    0    0  501    0 -0.00000000000E+00 -0.00000000000E+00 -0.52769145248E+03  0.52769145250E+03  0.50400000000E-02 0. -1.
          2    1    1    2    0  502  0.22154129398E+02  0.25168923368E+01 -0.93185631830E+02  0.95815980830E+02  0.25500000000E-02 0. -1.
         -2    1    1    2  502    0 -0.22154129398E+02 -0.25168923368E+01 -0.43290374400E+03  0.43347755625E+03  0.25500000000E-02 0. -1.
<mgrwt>
<rscale>  0 0.58151673E+02</rscale>
<asrwt>0</asrwt>
<pdfrwt beam="1">  1        1 0.24647436E-03 0.58151673E+02</pdfrwt>
<pdfrwt beam="2">  1       -1 0.81183162E-01 0.58151673E+02</pdfrwt>
<totfact> 0.14461220E+05</totfact>
</mgrwt>
</event>
<event>
 4    1  0.1893769E-002  0.6105735E+02  0.7818608E-02  0.1393447E+00
          1   -1    0    0    0  501  0.00000000000E+00  0.00000000000E+00  0.11061293530E+04  0.11061293531E+04  0.50400000000E-02 0. -1.
         -1   -1    0    0  501    0 -0.00000000000E+00 -0.00000000000E+00 -0.84257028767E+00  0.84258536141E+00  0.50400000000E-02 0. -1.
          2    1    1    2    0  502 -0.17684633537E+02  0.23824512659E+02  0.68293567121E+03  0.68357990366E+03  0.25500000000E-02 0.  1.
         -2    1    1    2  502    0  0.17684633537E+02 -0.23824512659E+02  0.42235111155E+03  0.42339203476E+03  0.25500000000E-02 0.  1.
<mgrwt>
<rscale>  0 0.61057353E+02</rscale>
<asrwt>0</asrwt>
<pdfrwt beam="1">  1        1 0.17017283E+00 0.61057353E+02</pdfrwt>
<pdfrwt beam="2">  1       -1 0.12962806E-03 0.61057353E+02</pdfrwt>
<totfact> 0.37240722E+05</totfact>
</mgrwt>
</event>
<event>
 4    1  0.1893769E-002  0.4276285E+02  0.7818608E-02  0.1488811E+00
         -1   -1    0    0  501    0 -0.00000000000E+00  0.00000000000E+00  0.10119725993E+02  0.10119727248E+02  0.50400000000E-02 0.  1.
          1   -1    0    0    0  501  0.00000000000E+00 -0.00000000000E+00 -0.45175654994E+02  0.45175655275E+02  0.50400000000E-02 0.  1.
          2    1    1    2    0  502  0.17802208239E+02  0.10754183884E+02 -0.23940629721E+02  0.31713165202E+02  0.25500000000E-02 0. -1.
         -2    1    1    2  502    0 -0.17802208239E+02 -0.10754183884E+02 -0.11115299280E+02  0.23582217321E+02  0.25500000000E-02 0. -1.
<mgrwt>
<rscale>  0 0.42762848E+02</rscale>
<asrwt>0</asrwt>
<pdfrwt beam="2">  1        1 0.69501007E-02 0.42762848E+02</pdfrwt>
<pdfrwt beam="1">  1       -1 0.15568811E-02 0.42762848E+02</pdfrwt>
<totfact> 0.68586034E+05</totfact>
</mgrwt>
</event>
<event>
 4    1  0.1893769E-002  0.9603802E+02  0.7818608E-02  0.1288855E+00
         -1   -1    0    0  501    0 -0.00000000000E+00  0.00000000000E+00  0.16501432926E+03  0.16501432934E+03  0.50400000000E-02 0.  1.
          1   -1    0    0    0  501  0.00000000000E+00 -0.00000000000E+00 -0.13973485037E+02  0.13973485946E+02  0.50400000000E-02 0.  1.
          2    1    1    2    0  502  0.38111664626E+01 -0.46721356296E+02  0.94925946894E+02  0.10586947400E+03  0.25500000000E-02 0. -1.
         -2    1    1    2  502    0 -0.38111664626E+01  0.46721356296E+02  0.56114897332E+02  0.73118341290E+02  0.25500000000E-02 0. -1.
<mgrwt>
<rscale>  0 0.96038021E+02</rscale>
<asrwt>0</asrwt>
<pdfrwt beam="2">  1        1 0.21497670E-02 0.96038021E+02</pdfrwt>
<pdfrwt beam="1">  1       -1 0.25386819E-01 0.96038021E+02</pdfrwt>
<totfact> 0.63836660E+04</totfact>
</mgrwt>
</event>
<event>
 4    1  0.1893769E-002  0.1033358E+03  0.7818608E-02  0.1273434E+00
         -1   -1    0    0  501    0 -0.00000000000E+00  0.00000000000E+00  0.88063673150E+01  0.88063687572E+01  0.50400000000E-02 0.  1.
          1   -1    0    0    0  501  0.00000000000E+00 -0.00000000000E+00 -0.30314117889E+03  0.30314117893E+03  0.50400000000E-02 0.  1.
          2    1    1    2    0  502  0.50166885469E+02 -0.81085354996E+01 -0.17534214074E+03  0.18255774722E+03  0.25500000000E-02 0. -1.
         -2    1    1    2  502    0 -0.50166885469E+02  0.81085354996E+01 -0.11899267084E+03  0.12938980047E+03  0.25500000000E-02 0. -1.
<mgrwt>
<rscale>  0 0.10333582E+03</rscale>
<asrwt>0</asrwt>
<pdfrwt beam="2">  1        1 0.46637097E-01 0.10333582E+03</pdfrwt>
<pdfrwt beam="1">  1       -1 0.13548261E-02 0.10333582E+03</pdfrwt>
<totfact> 0.91759995E+04</totfact>
</mgrwt>
</event>
<event>
 4    1  0.1893769E-002  0.5926247E+02  0.7818608E-02  0.1400953E+00
          1   -1    0    0    0  501  0.00000000000E+00  0.00000000000E+00  0.56887899731E+01  0.56887922057E+01  0.50400000000E-02 0. -1.
         -1   -1    0    0  501    0 -0.00000000000E+00 -0.00000000000E+00 -0.15434037809E+03  0.15434037817E+03  0.50400000000E-02 0. -1.
          2    1    1    2    0  502  0.37561171799E+01 -0.29032316497E+02 -0.86708096137E+02  0.91516543639E+02  0.25500000000E-02 0. -1.
         -2    1    1    2  502    0 -0.37561171799E+01  0.29032316497E+02 -0.61943491976E+02  0.68512626735E+02  0.25500000000E-02 0. -1.
<mgrwt>
<rscale>  0 0.59262473E+02</rscale>
<asrwt>0</asrwt>
<pdfrwt beam="1">  1        1 0.87519875E-03 0.59262473E+02</pdfrwt>
<pdfrwt beam="2">  1       -1 0.23744671E-01 0.59262473E+02</pdfrwt>
<totfact> 0.22378112E+05</totfact>
</mgrwt>
</event>
<event>
 4    1  0.1893769E-002  0.1372742E+03  0.7818608E-02  0.1217044E+00
          1   -1    0    0    0  501  0.00000000000E+00  0.00000000000E+00  0.21582634364E+02  0.21582634952E+02  0.50400000000E-02 0.  1.
         -1   -1    0    0  501    0 -0.00000000000E+00 -0.00000000000E+00 -0.21827974773E+03  0.21827974779E+03  0.50400000000E-02 0.  1.
          2    1    1    2    0  502 -0.20351708211E+02 -0.12561734676E+02 -0.21076354162E+03  0.21211614669E+03  0.25500000000E-02 0.  1.
         -2    1    1    2  502    0  0.20351708211E+02  0.12561734676E+02  0.14066428246E+02  0.27746236056E+02  0.25500000000E-02 0.  1.
<mgrwt>
<rscale>  0 0.13727421E+03</rscale>
<asrwt>0</asrwt>
<pdfrwt beam="1">  1        1 0.33204055E-02 0.13727421E+03</pdfrwt>
<pdfrwt beam="2">  1       -1 0.33581498E-01 0.13727421E+03</pdfrwt>
<totfact> 0.23007827E+04</totfact>
</mgrwt>
</event>
<event>
 4    1  0.1893769E-002  0.5117595E+02  0.7818608E-02  0.1439100E+00
         -1   -1    0    0  501    0 -0.00000000000E+00  0.00000000000E+00  0.88607684633E+02  0.88607684776E+02  0.50400000000E-02 0.  1.
          1   -1    0    0    0  501  0.00000000000E+00 -0.00000000000E+00 -0.73892491864E+01  0.73892509053E+01  0.50400000000E-02 0.  1.
          2    1    1    2    0  502 -0.23267091607E+02  0.39985833997E+01  0.22096644507E+02  0.32335861300E+02  0.25500000000E-02 0. -1.
         -2    1    1    2  502    0  0.23267091607E+02 -0.39985833997E+01  0.59121790939E+02  0.63661074382E+02  0.25500000000E-02 0. -1.
<mgrwt>
<rscale>  0 0.51175946E+02</rscale>
<asrwt>0</asrwt>
<pdfrwt beam="2">  1        1 0.11368077E-02 0.51175946E+02</pdfrwt>
<pdfrwt beam="1">  1       -1 0.13631952E-01 0.51175946E+02</pdfrwt>
<totfact> 0.35826933E+05</totfact>
</mgrwt>
</event>
<event>
 4    1  0.1893769E-002  0.4095123E+02  0.7818608E-02  0.1501326E+00
          1   -1    0    0    0  501  0.00000000000E+00  0.00000000000E+00  0.38290405444E+03  0.38290405447E+03  0.50400000000E-02 0.  1.
         -1   -1    0    0  501    0 -0.00000000000E+00 -0.00000000000E+00 -0.10949181701E+01  0.10949297698E+01  0.50400000000E-02 0.  1.
          2    1    1    2    0  502 -0.51477697474E+01 -0.19691026988E+02  0.16990607988E+03  0.17112075287E+03  0.25500000000E-02 0.  1.
         -2    1    1    2  502    0  0.51477697474E+01  0.19691026988E+02  0.21190305639E+03  0.21287823137E+03  0.25500000000E-02 0.  1.
<mgrwt>
<rscale>  0 0.40951231E+02</rscale>
<asrwt>0</asrwt>
<pdfrwt beam="1">  1        1 0.58908363E-01 0.40951231E+02</pdfrwt>
<pdfrwt beam="2">  1       -1 0.16844971E-03 0.40951231E+02</pdfrwt>
<totfact> 0.10267160E+06</totfact>
</mgrwt>
</event>
<event>
 4    1  0.1893769E-002  0.4497093E+02  0.7818608E-02  0.1474523E+00
          1   -1    0    0    0  501  0.00000000000E+00  0.00000000000E+00  0.82565557862E+01  0.82565573245E+01  0.50400000000E-02 0. -1.
         -1   -1    0    0  501    0 -0.00000000000E+00 -0.00000000000E+00 -0.61235723806E+02  0.61235724013E+02  0.50400000000E-02 0. -1.
          2    1    1    2    0  502  0.11203358000E+02 -0.19082566604E+02 -0.32658418407E+02  0.39449104908E+02  0.25500000000E-02 0.  1.
         -2    1    1    2  502    0 -0.11203358000E+02  0.19082566604E+02 -0.20320749613E+02  0.30043176430E+02  0.25500000000E-02 0.  1.
<mgrwt>
<rscale>  0 0.44970934E+02</rscale>
<asrwt>0</asrwt>
<pdfrwt beam="1">  1        1 0.12702395E-02 0.44970934E+02</pdfrwt>
<pdfrwt beam="2">  1       -1 0.94208804E-02 0.44970934E+02</pdfrwt>
<totfact> 0.51764074E+05</totfact>
</mgrwt>
</event>
<event>
 4    1  0.1893769E-002  0.8199172E+02  0.7818608E-02  0.1323492E+00
          1   -1    0    0    0  501  0.00000000000E+00  0.00000000000E+00  0.47386453245E+03  0.47386453247E+03  0.50400000000E-02 0.  1.
         -1   -1    0    0  501    0 -0.00000000000E+00 -0.00000000000E+00 -0.35467091487E+01  0.35467127297E+01  0.50400000000E-02 0.  1.
          2    1    1    2    0  502  0.34756673039E+02 -0.21044193014E+01  0.10916749426E+03  0.11458619773E+03  0.25500000000E-02 0.  1.
         -2    1    1    2  502    0 -0.34756673039E+02  0.21044193014E+01  0.36115032904E+03  0.36282504747E+03  0.25500000000E-02 0.  1.
<mgrwt>
<rscale>  0 0.81991720E+02</rscale>
<asrwt>0</asrwt>
<pdfrwt beam="1">  1        1 0.72902224E-01 0.81991720E+02</pdfrwt>
<pdfrwt beam="2">  1       -1 0.54564793E-03 0.81991720E+02</pdfrwt>
<totfact> 0.18302638E+05</totfact>
</mgrwt>
</event>
<event>
 4    1  0.1893769E-002  0.5208017E+02  0.7818608E-02  0.1434434E+00
         -1   -1    0    0  501    0 -0.00000000000E+00  0.00000000000E+00  0.11793997520E+01  0.11794105208E+01  0.50400000000E-02 0. -1.
          1   -1    0    0    0  501  0.00000000000E+00 -0.00000000000E+00 -0.57493895513E+03  0.57493895515E+03  0.50400000000E-02 0. -1.
          2    1    1    2    0  502 -0.16619811750E+01  0.24596277097E+02 -0.19409816140E+03  0.19565744375E+03  0.25500000000E-02 0.  1.
         -2    1    1    2  502    0  0.16619811750E+01 -0.24596277097E+02 -0.37966139397E+03  0.38046092192E+03  0.25500000000E-02 0.  1.
<mgrwt>
<rscale>  0 0.52080168E+02</rscale>
<asrwt>0</asrwt>
<pdfrwt beam="2">  1        1 0.88451924E-01 0.52080168E+02</pdfrwt>
<pdfrwt beam="1">  1       -1 0.18144741E-03 0.52080168E+02</pdfrwt>
<totfact> 0.59610566E+05</totfact>
</mgrwt>
</event>
<event>
 4    1  0.1893769E-002  0.6126246E+02  0.7818608E-02  0.1392609E+00
         -1   -1    0    0  501    0 -0.00000000000E+00  0.00000000000E+00  0.78328162719E+00  0.78329784188E+00  0.50400000000E-02 0. -1.
          1   -1    0    0    0  501  0.00000000000E+00 -0.00000000000E+00 -0.11978610340E+04  0.11978610340E+04  0.50400000000E-02 0. -1.
          2    1    1    2    0  502  0.19984070777E+02 -0.18336180403E+02 -0.31998065241E+03  0.32112800644E+03  0.25500000000E-02 0. -1.
         -2    1    1    2  502    0 -0.19984070777E+02  0.18336180403E+02 -0.87709709995E+03  0.87751632540E+03  0.25500000000E-02 0. -1.
<mgrwt>
<rscale>  0 0.61262460E+02</rscale>
<asrwt>0</asrwt>
<pdfrwt beam="2">  1        1 0.18428485E+00 0.61262460E+02</pdfrwt>
<pdfrwt beam="1">  1       -1 0.12050707E-03 0.61262460E+02</pdfrwt>
<totfact> 0.35725373E+05</totfact>
</mgrwt>
</event>
<event>
 4    1  0.1893769E-002  0.5162417E+02  0.7818608E-02  0.1436773E+00
          1   -1    0    0    0  501  0.00000000000E+00  0.00000000000E+00  0.15000881999E+03  0.15000882008E+03  0.50400000000E-02 0.  1.
         -1   -1    0    0  501    0 -0.00000000000E+00 -0.00000000000E+00 -0.44414958746E+01  0.44414987342E+01  0.50400000000E-02 0.  1.
          2    1    1    2    0  502  0.23818897528E+02  0.46117299596E+01  0.99148358824E+02  0.10207352740E+03  0.25500000000E-02 0.  1.
         -2    1    1    2  502    0 -0.23818897528E+02 -0.46117299596E+01  0.46418965293E+02  0.52376791406E+02  0.25500000000E-02 0.  1.
<mgrwt>
<rscale>  0 0.51624172E+02</rscale>
<asrwt>0</asrwt>
<pdfrwt beam="1">  1        1 0.23078278E-01 0.51624172E+02</pdfrwt>
<pdfrwt beam="2">  1       -1 0.68330735E-03 0.51624172E+02</pdfrwt>
<totfact> 0.49443731E+05</totfact>
</mgrwt>
</event>
<event>
 4    1  0.1893769E-002  0.6112362E+02  0.7818608E-02  0.1393176E+00
         -1   -1    0    0  501    0 -0.00000000000E+00  0.00000000000E+00  0.23421549901E+03  0.23421549906E+03  0.50400000000E-02 0.  1.
          1   -1    0    0    0  501  0.00000000000E+00 -0.00000000000E+00 -0.39878822742E+01  0.39878854590E+01  0.50400000000E-02 0.  1.
          2    1    1    2    0  502  0.27666640742E+02 -0.10599080392E+02  0.14433946147E+03  0.14734878235E+03  0.25500000000E-02 0. -1.
         -2    1    1    2  502    0 -0.27666640742E+02  0.10599080392E+02  0.85888155261E+02  0.90854602172E+02  0.25500000000E-02 0. -1.
<mgrwt>
<rscale>  0 0.61123620E+02</rscale>
<asrwt>0</asrwt>
<pdfrwt beam="2">  1        1 0.61352032E-03 0.61123620E+02</pdfrwt>
<pdfrwt beam="1">  1       -1 0.36033170E-01 0.61123620E+02</pdfrwt>
<totfact> 0.18501543E+05</totfact>
</mgrwt>
</event>
<event>
 4    1  0.1893769E-002  0.4134741E+02  0.7818608E-02  0.1498524E+00
         -1   -1    0    0  501    0 -0.00000000000E+00  0.00000000000E+00  0.70193030332E+02  0.70193030513E+02  0.50400000000E-02 0.  1.
          1   -1    0    0    0  501  0.00000000000E+00 -0.00000000000E+00 -0.60889509448E+01  0.60889530307E+01  0.50400000000E-02 0.  1.
          2    1    1    2    0  502 -0.12827796366E+02 -0.15642993822E+02  0.39911065966E+02  0.44745377508E+02  0.25500000000E-02 0. -1.
         -2    1    1    2  502    0  0.12827796366E+02  0.15642993822E+02  0.24193013421E+02  0.31536606035E+02  0.25500000000E-02 0. -1.
<mgrwt>
<rscale>  0 0.41347406E+02</rscale>
<asrwt>0</asrwt>
<pdfrwt beam="2">  1        1 0.93676180E-03 0.41347406E+02</pdfrwt>
<pdfrwt beam="1">  1       -1 0.10798929E-01 0.41347406E+02</pdfrwt>
<totfact> 0.62426453E+05</totfact>
</mgrwt>
</event>
<event>
 4    1  0.1893769E-002  0.4539869E+02  0.7818608E-02  0.1471868E+00
          1   -1    0    0    0  501  0.00000000000E+00  0.00000000000E+00  0.30839734171E+03  0.30839734175E+03  0.50400000000E-02 0. -1.
         -1   -1    0    0  501    0 -0.00000000000E+00 -0.00000000000E+00 -0.16707634455E+01  0.16707710473E+01  0.50400000000E-02 0. -1.
          2    1    1    2    0  502  0.21941065145E+02  0.58172324346E+01  0.15269233235E+03  0.15437033037E+03  0.25500000000E-02 0. -1.
         -2    1    1    2  502    0 -0.21941065145E+02 -0.58172324346E+01  0.15403424591E+03  0.15569778243E+03  0.25500000000E-02 0. -1.
<mgrwt>
<rscale>  0 0.45398687E+02</rscale>
<asrwt>0</asrwt>
<pdfrwt beam="1">  1        1 0.47445734E-01 0.45398687E+02</pdfrwt>
<pdfrwt beam="2">  1       -1 0.25704118E-03 0.45398687E+02</pdfrwt>
<totfact> 0.77044050E+05</totfact>
</mgrwt>
</event>
<event>
 4    1  0.1893769E-002  0.5624158E+02  0.7818608E-02  0.1414317E+00
          1   -1    0    0    0  501  0.00000000000E+00  0.00000000000E+00  0.23523217817E+02  0.23523218357E+02  0.50400000000E-02 0. -1.
         -1   -1    0    0  501    0 -0.00000000000E+00 -0.00000000000E+00 -0.33616946677E+02  0.33616947054E+02  0.50400000000E-02 0. -1.
          2    1    1    2    0  502 -0.29623238801E+01  0.22738834140E+02  0.11490450700E+02  0.25648789535E+02  0.25500000000E-02 0.  1.
         -2    1    1    2  502    0  0.29623238801E+01 -0.22738834140E+02 -0.21584179559E+02  0.31491375876E+02  0.25500000000E-02 0.  1.
<mgrwt>
<rscale>  0 0.56241578E+02</rscale>
<asrwt>0</asrwt>
<pdfrwt beam="1">  1        1 0.36189567E-02 0.56241578E+02</pdfrwt>
<pdfrwt beam="2">  1       -1 0.51718380E-02 0.56241578E+02</pdfrwt>
<totfact> 0.31907193E+05</totfact>
</mgrwt>
</event>
<event>
 4    1  0.1893769E-002  0.5405269E+02  0.7818608E-02  0.1424633E+00
         -1   -1    0    0  501    0 -0.00000000000E+00  0.00000000000E+00  0.22852306995E+01  0.22852362573E+01  0.50400000000E-02 0. -1.
          1   -1    0    0    0  501  0.00000000000E+00 -0.00000000000E+00 -0.31962747945E+03  0.31962747949E+03  0.50400000000E-02 0. -1.
          2    1    1    2    0  502  0.21386168571E+02  0.13304646462E+02 -0.21703585429E+03  0.21849243437E+03  0.25500000000E-02 0. -1.
         -2    1    1    2  502    0 -0.21386168571E+02 -0.13304646462E+02 -0.10030639446E+03  0.10342028137E+03  0.25500000000E-02 0. -1.
<mgrwt>
<rscale>  0 0.54052694E+02</rscale>
<asrwt>0</asrwt>
<pdfrwt beam="2">  1        1 0.49173424E-01 0.54052694E+02</pdfrwt>
<pdfrwt beam="1">  1       -1 0.35157464E-03 0.54052694E+02</pdfrwt>
<totfact> 0.50205122E+05</totfact>
</mgrwt>
</event>
<event>
 4    1  0.1893769E-002  0.4861569E+02  0.7818608E-02  0.1452954E+00
          1   -1    0    0    0  501  0.00000000000E+00  0.00000000000E+00  0.74146914261E+02  0.74146914432E+02  0.50400000000E-02 0.  1.
         -1   -1    0    0  501    0 -0.00000000000E+00 -0.00000000000E+00 -0.79689272486E+01  0.79689288424E+01  0.50400000000E-02 0.  1.
          2    1    1    2    0  502 -0.76882224993E+01 -0.19928133601E+02  0.13490401796E+02  0.25263218740E+02  0.25500000000E-02 0. -1.
         -2    1    1    2  502    0  0.76882224993E+01  0.19928133601E+02  0.52687585216E+02  0.56852624534E+02  0.25500000000E-02 0. -1.
<mgrwt>
<rscale>  0 0.48615694E+02</rscale>
<asrwt>0</asrwt>
<pdfrwt beam="1">  1        1 0.11407218E-01 0.48615694E+02</pdfrwt>
<pdfrwt beam="2">  1       -1 0.12259889E-02 0.48615694E+02</pdfrwt>
<totfact> 0.52218221E+05</totfact>
</mgrwt>
</event>
<event>
 4    1  0.1893769E-002  0.5537245E+02  0.7818608E-02  0.1418346E+00
         -1   -1    0    0  501    0 -0.00000000000E+00  0.00000000000E+00  0.19907902016E+03  0.19907902022E+03  0.50400000000E-02 0.  1.
          1   -1    0    0    0  501  0.00000000000E+00 -0.00000000000E+00 -0.38503640758E+01  0.38503673744E+01  0.50400000000E-02 0.  1.
          2    1    1    2    0  502 -0.26606801167E+02 -0.75003747310E+01  0.91996818743E+02  0.96060356833E+02  0.25500000000E-02 0. -1.
         -2    1    1    2  502    0  0.26606801167E+02  0.75003747310E+01  0.10323183734E+03  0.10686903076E+03  0.25500000000E-02 0. -1.
<mgrwt>
<rscale>  0 0.55372450E+02</rscale>
<asrwt>0</asrwt>
<pdfrwt beam="2">  1        1 0.59236402E-03 0.55372450E+02</pdfrwt>
<pdfrwt beam="1">  1       -1 0.30627539E-01 0.55372450E+02</pdfrwt>
<totfact> 0.24891586E+05</totfact>
</mgrwt>
</event>
<event>
 4    1  0.1893769E-002  0.4437741E+02  0.7818608E-02  0.1478266E+00
          1   -1    0    0    0  501  0.00000000000E+00  0.00000000000E+00  0.10350549916E+03  0.10350549928E+03  0.50400000000E-02 0. -1.
         -1   -1    0    0  501    0 -0.00000000000E+00 -0.00000000000E+00 -0.47566416348E+01  0.47566443049E+01  0.50400000000E-02 0. -1.
          2    1    1    2    0  502  0.13958529439E+02  0.15778982535E+02  0.66367951986E+02  0.69631328375E+02  0.25500000000E-02 0.  1.
         -2    1    1    2  502    0 -0.13958529439E+02 -0.15778982535E+02  0.32380905537E+02  0.38630815211E+02  0.25500000000E-02 0.  1.
<mgrwt>
<rscale>  0 0.44377414E+02</rscale>
<asrwt>0</asrwt>
<pdfrwt beam="1">  1        1 0.15923922E-01 0.44377414E+02</pdfrwt>
<pdfrwt beam="2">  1       -1 0.73179127E-03 0.44377414E+02</pdfrwt>
<totfact> 0.68388917E+05</totfact>
</mgrwt>
</event>
<event>
 4    1  0.1893769E-002  0.1321448E+03  0.7818608E-02  0.1224307E+00
         -1   -1    0    0  501    0 -0.00000000000E+00  0.00000000000E+00  0.17140063225E+02  0.17140063966E+02  0.50400000000E-02 0.  1.
          1   -1    0    0    0  501  0.00000000000E+00 -0.00000000000E+00 -0.25469930691E+03  0.25469930696E+03  0.50400000000E-02 0.  1.
          2    1    1    2    0  502  0.52327441804E+02 -0.38736578209E+02 -0.14195125098E+03  0.15616927137E+03  0.25500000000E-02 0.  1.
         -2    1    1    2  502    0 -0.52327441804E+02  0.38736578209E+02 -0.95607992704E+02  0.11567009956E+03  0.25500000000E-02 0.  1.
<mgrwt>
<rscale>  0 0.13214480E+03</rscale>
<asrwt>0</asrwt>
<pdfrwt beam="2">  1        1 0.39184506E-01 0.13214480E+03</pdfrwt>
<pdfrwt beam="1">  1       -1 0.26369330E-02 0.13214480E+03</pdfrwt>
<totfact> 0.45126972E+04</totfact>
</mgrwt>
</event>
<event>
 4    1  0.1893769E-002  0.4224697E+02  0.7818608E-02  0.1492298E+00
         -1   -1    0    0  501    0 -0.00000000000E+00  0.00000000000E+00  0.64209043379E+02  0.64209043577E+02  0.50400000000E-02 0.  1.
          1   -1    0    0    0  501  0.00000000000E+00 -0.00000000000E+00 -0.69492020278E+01  0.69492038554E+01  0.50400000000E-02 0.  1.
          2    1    1    2    0  502  0.16210952229E+02 -0.13478012348E+02  0.30858023050E+02  0.37372040111E+02  0.25500000000E-02 0.  1.
         -2    1    1    2  502    0 -0.16210952229E+02  0.13478012348E+02  0.26401818302E+02  0.33786207321E+02  0.25500000000E-02 0.  1.
<mgrwt>
<rscale>  0 0.42246973E+02</rscale>
<asrwt>0</asrwt>
<pdfrwt beam="2">  1        1 0.10691081E-02 0.42246973E+02</pdfrwt>
<pdfrwt beam="1">  1       -1 0.98783151E-02 0.42246973E+02</pdfrwt>
<totfact> 0.59923554E+05</totfact>
</mgrwt>
</event>
<event>
 4    1  0.1893769E-002  0.5233532E+02  0.7818608E-02  0.1433138E+00
         -1   -1    0    0  501    0 -0.00000000000E+00  0.00000000000E+00  0.14242613353E+01  0.14242702528E+01  0.50400000000E-02 0.  1.
          1   -1    0    0    0  501  0.00000000000E+00 -0.00000000000E+00 -0.48077147141E+03  0.48077147143E+03  0.50400000000E-02 0.  1.
          2    1    1    2    0  502  0.19568658625E+02 -0.17138173100E+02 -0.26589104660E+03  0.26716043503E+03  0.25500000000E-02 0. -1.
         -2    1    1    2  502    0 -0.19568658625E+02  0.17138173100E+02 -0.21345616347E+03  0.21503530666E+03  0.25500000000E-02 0. -1.
<mgrwt>
<rscale>  0 0.52335318E+02</rscale>
<asrwt>0</asrwt>
<pdfrwt beam="2">  1        1 0.73964713E-01 0.52335318E+02</pdfrwt>
<pdfrwt beam="1">  1       -1 0.21911820E-03 0.52335318E+02</pdfrwt>
<totfact> 0.57901998E+05</totfact>
</mgrwt>
</event>
<event>
 4    1  0.1893769E-002  0.4563005E+02  0.7818608E-02  0.1470446E+00
          1   -1    0    0    0  501  0.00000000000E+00  0.00000000000E+00  0.52130917080E+00  0.52133353351E+00  0.50400000000E-02 0.  1.
         -1   -1    0    0  501    0 -0.00000000000E+00 -0.00000000000E+00 -0.99847315050E+03  0.99847315051E+03  0.50400000000E-02 0.  1.
          2    1    1    2    0  502  0.11401046548E+02 -0.16649085603E+02 -0.26588686883E+03  0.26665146340E+03  0.25500000000E-02 0.  1.
         -2    1    1    2  502    0 -0.11401046548E+02  0.16649085603E+02 -0.73206497251E+03  0.73234302065E+03  0.25500000000E-02 0.  1.
<mgrwt>
<rscale>  0 0.45630051E+02</rscale>
<asrwt>0</asrwt>
<pdfrwt beam="1">  1        1 0.80204085E-04 0.45630051E+02</pdfrwt>
<pdfrwt beam="2">  1       -1 0.15360973E+00 0.45630051E+02</pdfrwt>
<totfact> 0.14959900E+05</totfact>
</mgrwt>
</event>
<event>
 4    1  0.1893769E-002  0.5613254E+02  0.7818608E-02  0.1414818E+00
          1   -1    0    0    0  501  0.00000000000E+00  0.00000000000E+00  0.32631532509E+04  0.32631532510E+04  0.50400000000E-02 0.  1.
         -1   -1    0    0  501    0 -0.00000000000E+00 -0.00000000000E+00 -0.24137068946E+00  0.24142330321E+00  0.50400000000E-02 0.  1.
          2    1    1    2    0  502  0.27234902485E+02  0.39441031058E+01  0.19521059326E+04  0.19522998920E+04  0.25500000000E-02 0.  1.
         -2    1    1    2  502    0 -0.27234902485E+02 -0.39441031058E+01  0.13108059476E+04  0.13110947823E+04  0.25500000000E-02 0.  1.
<mgrwt>
<rscale>  0 0.56132536E+02</rscale>
<asrwt>0</asrwt>
<pdfrwt beam="1">  1        1 0.50208007E+00 0.56132536E+02</pdfrwt>
<pdfrwt beam="2">  1       -1 0.37133821E-04 0.56132536E+02</pdfrwt>
<totfact> 0.83291963E+04</totfact>
</mgrwt>
</event>
<event>
 4    1  0.1893769E-002  0.5747651E+02  0.7818608E-02  0.1408737E+00
         -1   -1    0    0  501    0 -0.00000000000E+00  0.00000000000E+00  0.43912049691E+03  0.43912049694E+03  0.50400000000E-02 0.  1.
          1   -1    0    0    0  501  0.00000000000E+00 -0.00000000000E+00 -0.18807724819E+01  0.18807792349E+01  0.50400000000E-02 0.  1.
          2    1    1    2    0  502 -0.14361508224E+02  0.21801713828E+02  0.31079464381E+03  0.31188920832E+03  0.25500000000E-02 0. -1.
         -2    1    1    2  502    0  0.14361508224E+02 -0.21801713828E+02  0.12644508062E+03  0.12911206785E+03  0.25500000000E-02 0. -1.
<mgrwt>
<rscale>  0 0.57476508E+02</rscale>
<asrwt>0</asrwt>
<pdfrwt beam="2">  1        1 0.28935010E-03 0.57476508E+02</pdfrwt>
<pdfrwt beam="1">  1       -1 0.67557009E-01 0.57476508E+02</pdfrwt>
<totfact> 0.16610200E+05</totfact>
</mgrwt>
</event>
<event>
 4    1  0.1893769E-002  0.7041324E+02  0.7818608E-02  0.1358693E+00
          1   -1    0    0    0  501  0.00000000000E+00  0.00000000000E+00  0.66523820463E+03  0.66523820464E+03  0.50400000000E-02 0. -1.
         -1   -1    0    0  501    0 -0.00000000000E+00 -0.00000000000E+00 -0.18632480284E+01  0.18632548448E+01  0.50400000000E-02 0. -1.
          2    1    1    2    0  502 -0.28114344804E+02  0.17551501719E+02  0.21917513385E+03  0.22166689176E+03  0.25500000000E-02 0. -1.
         -2    1    1    2  502    0  0.28114344804E+02 -0.17551501719E+02  0.44419982274E+03  0.44543456773E+03  0.25500000000E-02 0. -1.
<mgrwt>
<rscale>  0 0.70413239E+02</rscale>
<asrwt>0</asrwt>
<pdfrwt beam="1">  1        1 0.10234423E+00 0.70413239E+02</pdfrwt>
<pdfrwt beam="2">  1       -1 0.28665438E-03 0.70413239E+02</pdfrwt>
<totfact> 0.27915237E+05</totfact>
</mgrwt>
</event>
<event>
 4    1  0.1893769E-002  0.5121071E+02  0.7818608E-02  0.1438919E+00
         -1   -1    0    0  501    0 -0.00000000000E+00  0.00000000000E+00  0.47591560023E+02  0.47591560290E+02  0.50400000000E-02 0.  1.
          1   -1    0    0    0  501  0.00000000000E+00 -0.00000000000E+00 -0.13776271914E+02  0.13776272836E+02  0.50400000000E-02 0.  1.
          2    1    1    2    0  502 -0.58016449354E+01  0.24166690093E+02  0.24289485611E+02  0.34751505172E+02  0.25500000000E-02 0. -1.
         -2    1    1    2  502    0  0.58016449354E+01 -0.24166690093E+02  0.95258024976E+01  0.26616327954E+02  0.25500000000E-02 0. -1.
<mgrwt>
<rscale>  0 0.51210714E+02</rscale>
<asrwt>0</asrwt>
<pdfrwt beam="2">  1        1 0.21194265E-02 0.51210714E+02</pdfrwt>
<pdfrwt beam="1">  1       -1 0.73217787E-02 0.51210714E+02</pdfrwt>
<totfact> 0.38746385E+05</totfact>
</mgrwt>
</event>
<event>
 4    1  0.1893769E-002  0.6577551E+02  0.7818608E-02  0.1375078E+00
          1   -1    0    0    0  501  0.00000000000E+00  0.00000000000E+00  0.56373794922E+03  0.56373794924E+03  0.50400000000E-02 0. -1.
         -1   -1    0    0  501    0 -0.00000000000E+00 -0.00000000000E+00 -0.19186266753E+01  0.19186332950E+01  0.50400000000E-02 0. -1.
          2    1    1    2    0  502 -0.21404702724E+02 -0.93915670944E+01  0.47986865318E+03  0.48043759964E+03  0.25500000000E-02 0.  1.
         -2    1    1    2  502    0  0.21404702724E+02  0.93915670944E+01  0.81950669361E+02  0.85218982899E+02  0.25500000000E-02 0.  1.
<mgrwt>
<rscale>  0 0.65775514E+02</rscale>
<asrwt>0</asrwt>
<pdfrwt beam="1">  1        1 0.86728771E-01 0.65775514E+02</pdfrwt>
<pdfrwt beam="2">  1       -1 0.29517434E-03 0.65775514E+02</pdfrwt>
<totfact> 0.32995719E+05</totfact>
</mgrwt>
</event>
<event>
 4    1  0.1893769E-002  0.5039853E+02  0.7818608E-02  0.1443204E+00
          1   -1    0    0    0  501  0.00000000000E+00  0.00000000000E+00  0.14278608533E+03  0.14278608542E+03  0.50400000000E-02 0.  1.
         -1   -1    0    0  501    0 -0.00000000000E+00 -0.00000000000E+00 -0.44472307962E+01  0.44472336521E+01  0.50400000000E-02 0.  1.
          2    1    1    2    0  502  0.18858598177E+02 -0.13735099740E+02  0.96992145041E+02  0.99758588083E+02  0.25500000000E-02 0. -1.
         -2    1    1    2  502    0 -0.18858598177E+02  0.13735099740E+02  0.41346709494E+02  0.47474730989E+02  0.25500000000E-02 0. -1.
<mgrwt>
<rscale>  0 0.50398527E+02</rscale>
<asrwt>0</asrwt>
<pdfrwt beam="1">  1        1 0.21967092E-01 0.50398527E+02</pdfrwt>
<pdfrwt beam="2">  1       -1 0.68418953E-03 0.50398527E+02</pdfrwt>
<totfact> 0.52118105E+05</totfact>
</mgrwt>
</event>
<event>
 4    1  0.1893769E-002  0.4900301E+02  0.7818608E-02  0.1450794E+00
         -1   -1    0    0  501    0 -0.00000000000E+00  0.00000000000E+00  0.75492420282E+00  0.75494102658E+00  0.50400000000E-02 0.  1.
          1   -1    0    0    0  501  0.00000000000E+00 -0.00000000000E+00 -0.79520169323E+03  0.79520169325E+03  0.50400000000E-02 0.  1.
          2    1    1    2    0  502  0.85117485222E+01  0.22429296818E+02 -0.31633303407E+03  0.31724140914E+03  0.25500000000E-02 0. -1.
         -2    1    1    2  502    0 -0.85117485222E+01 -0.22429296818E+02 -0.47811373496E+03  0.47871522514E+03  0.25500000000E-02 0. -1.
<mgrwt>
<rscale>  0 0.49003008E+02</rscale>
<asrwt>0</asrwt>
<pdfrwt beam="2">  1        1 0.12233805E+00 0.49003008E+02</pdfrwt>
<pdfrwt beam="1">  1       -1 0.11614412E-03 0.49003008E+02</pdfrwt>
<totfact> 0.69325259E+05</totfact>
</mgrwt>
</event>
<event>
 4    1  0.1893769E-002  0.5629498E+02  0.7818608E-02  0.1414072E+00
          1   -1    0    0    0  501  0.00000000000E+00  0.00000000000E+00  0.64392848560E+03  0.64392848562E+03  0.50400000000E-02 0. -1.
         -1   -1    0    0  501    0 -0.00000000000E+00 -0.00000000000E+00 -0.12303816755E+01  0.12303919981E+01  0.50400000000E-02 0. -1.
          2    1    1    2    0  502  0.25661200202E+02 -0.60340104542E+01  0.43443795738E+03  0.43523699899E+03  0.25500000000E-02 0.  1.
         -2    1    1    2  502    0 -0.25661200202E+02  0.60340104542E+01  0.20826014655E+03  0.20992187863E+03  0.25500000000E-02 0.  1.
<mgrwt>
<rscale>  0 0.56294978E+02</rscale>
<asrwt>0</asrwt>
<pdfrwt beam="1">  1        1 0.99066017E-01 0.56294978E+02</pdfrwt>
<pdfrwt beam="2">  1       -1 0.18929010E-03 0.56294978E+02</pdfrwt>
<totfact> 0.49321640E+05</totfact>
</mgrwt>
</event>
<event>
 4    1  0.1893769E-002  0.6439167E+02  0.7818608E-02  0.1380275E+00
          1   -1    0    0    0  501  0.00000000000E+00  0.00000000000E+00  0.11406092336E+04  0.11406092336E+04  0.50400000000E-02 0. -1.
         -1   -1    0    0  501    0 -0.00000000000E+00 -0.00000000000E+00 -0.90878082671E+00  0.90879480225E+00  0.50400000000E-02 0. -1.
          2    1    1    2    0  502 -0.22198790868E+02 -0.64129656364E+01  0.17239339730E+03  0.17393503352E+03  0.25500000000E-02 0.  1.
         -2    1    1    2  502    0  0.22198790868E+02  0.64129656364E+01  0.96730705543E+03  0.96758299485E+03  0.25500000000E-02 0.  1.
<mgrwt>
<rscale>  0 0.64391670E+02</rscale>
<asrwt>0</asrwt>
<pdfrwt beam="1">  1        1 0.17547737E+00 0.64391670E+02</pdfrwt>
<pdfrwt beam="2">  1       -1 0.13981428E-03 0.64391670E+02</pdfrwt>
<totfact> 0.32144275E+05</totfact>
</mgrwt>
</event>
<event>
 4    1  0.1893769E-002  0.6003857E+02  0.7818608E-02  0.1397670E+00
         -1   -1    0    0  501    0 -0.00000000000E+00  0.00000000000E+00  0.65757183408E+02  0.65757183601E+02  0.50400000000E-02 0.  1.
          1   -1    0    0    0  501  0.00000000000E+00 -0.00000000000E+00 -0.13704318952E+02  0.13704319879E+02  0.50400000000E-02 0.  1.
          2    1    1    2    0  502  0.23682002838E+02 -0.37373074863E+01  0.49935908574E+02  0.55393137637E+02  0.25500000000E-02 0. -1.
         -2    1    1    2  502    0 -0.23682002838E+02  0.37373074863E+01  0.21169558825E+01  0.24068365844E+02  0.25500000000E-02 0. -1.
<mgrwt>
<rscale>  0 0.60038570E+02</rscale>
<asrwt>0</asrwt>
<pdfrwt beam="2">  1        1 0.21083568E-02 0.60038570E+02</pdfrwt>
<pdfrwt beam="1">  1       -1 0.10116490E-01 0.60038570E+02</pdfrwt>
<totfact> 0.25116316E+05</totfact>
</mgrwt>
</event>
<event>
 4    1  0.1893769E-002  0.7128819E+02  0.7818608E-02  0.1355767E+00
          1   -1    0    0    0  501  0.00000000000E+00  0.00000000000E+00  0.11154417730E+02  0.11154418868E+02  0.50400000000E-02 0. -1.
         -1   -1    0    0  501    0 -0.00000000000E+00 -0.00000000000E+00 -0.11390117275E+03  0.11390117286E+03  0.50400000000E-02 0. -1.
          2    1    1    2    0  502  0.34476279935E+02  0.90454335998E+01 -0.50917328522E+02  0.62153102075E+02  0.25500000000E-02 0.  1.
         -2    1    1    2  502    0 -0.34476279935E+02 -0.90454335998E+01 -0.51829426497E+02  0.62902489654E+02  0.25500000000E-02 0.  1.
<mgrwt>
<rscale>  0 0.71288185E+02</rscale>
<asrwt>0</asrwt>
<pdfrwt beam="1">  1        1 0.17160644E-02 0.71288185E+02</pdfrwt>
<pdfrwt beam="2">  1       -1 0.17523257E-01 0.71288185E+02</pdfrwt>
<totfact> 0.14921817E+05</totfact>
</mgrwt>
</event>
<event>
 4    1  0.1893769E-002  0.6457770E+02  0.7818608E-02  0.1379567E+00
         -1   -1    0    0  501    0 -0.00000000000E+00  0.00000000000E+00  0.91621663111E+00  0.91623049323E+00  0.50400000000E-02 0. -1.
          1   -1    0    0    0  501  0.00000000000E+00 -0.00000000000E+00 -0.11378991004E+04  0.11378991005E+04  0.50400000000E-02 0. -1.
          2    1    1    2    0  502 -0.24427939956E+01 -0.31774699691E+02 -0.66007568473E+03  0.66084454175E+03  0.25500000000E-02 0. -1.
         -2    1    1    2  502    0  0.24427939956E+01  0.31774699691E+02 -0.47690719909E+03  0.47797078920E+03  0.25500000000E-02 0. -1.
<mgrwt>
<rscale>  0 0.64577705E+02</rscale>
<asrwt>0</asrwt>
<pdfrwt beam="2">  1        1 0.17506027E+00 0.64577705E+02</pdfrwt>
<pdfrwt beam="1">  1       -1 0.14095838E-03 0.64577705E+02</pdfrwt>
<totfact> 0.31939077E+05</totfact>
</mgrwt>
</event>
<event>
 4    1  0.1893769E-002  0.4163200E+02  0.7818608E-02  0.1496534E+00
         -1   -1    0    0  501    0 -0.00000000000E+00  0.00000000000E+00  0.20557082912E+00  0.20563260292E+00  0.50400000000E-02 0.  1.
          1   -1    0    0    0  501  0.00000000000E+00 -0.00000000000E+00 -0.21075012709E+04  0.21075012709E+04  0.50400000000E-02 0.  1.
          2    1    1    2    0  502 -0.95763831402E+01 -0.18301190385E+02 -0.11843520472E+04  0.11845321491E+04  0.25500000000E-02 0. -1.
         -2    1    1    2  502    0  0.95763831402E+01  0.18301190385E+02 -0.92294365292E+03  0.92317475440E+03  0.25500000000E-02 0. -1.
<mgrwt>
<rscale>  0 0.41632002E+02</rscale>
<asrwt>0</asrwt>
<pdfrwt beam="2">  1        1 0.32421367E+00 0.41632002E+02</pdfrwt>
<pdfrwt beam="1">  1       -1 0.31632721E-04 0.41632002E+02</pdfrwt>
<totfact> 0.54788242E+05</totfact>
</mgrwt>
</event>
<event>
 4    1  0.1893769E-002  0.4960026E+02  0.7818608E-02  0.1447510E+00
         -1   -1    0    0  501    0 -0.00000000000E+00  0.00000000000E+00  0.32297978257E+01  0.32298017581E+01  0.50400000000E-02 0.  1.
          1   -1    0    0    0  501  0.00000000000E+00 -0.00000000000E+00 -0.19042865547E+03  0.19042865553E+03  0.50400000000E-02 0.  1.
          2    1    1    2    0  502  0.11313295923E+02  0.22069333232E+02 -0.93667523154E+02  0.96895051650E+02  0.25500000000E-02 0. -1.
         -2    1    1    2  502    0 -0.11313295923E+02 -0.22069333232E+02 -0.93531334485E+02  0.96763405639E+02  0.25500000000E-02 0. -1.
<mgrwt>
<rscale>  0 0.49600260E+02</rscale>
<asrwt>0</asrwt>
<pdfrwt beam="2">  1        1 0.29296708E-01 0.49600260E+02</pdfrwt>
<pdfrwt beam="1">  1       -1 0.49689243E-03 0.49600260E+02</pdfrwt>
<totfact> 0.56865356E+05</totfact>
</mgrwt>
</event>
<event>
 4    1  0.1893769E-002  0.8203928E+02  0.7818608E-02  0.1323362E+00
         -1   -1    0    0  501    0 -0.00000000000E+00  0.00000000000E+00  0.32264968721E+01  0.32265008085E+01  0.50400000000E-02 0. -1.
          1   -1    0    0    0  501  0.00000000000E+00 -0.00000000000E+00 -0.52149749164E+03  0.52149749167E+03  0.50400000000E-02 0. -1.
          2    1    1    2    0  502  0.24743242493E+02  0.11806196407E+01 -0.50015432820E+02  0.55813667130E+02  0.25500000000E-02 0.  1.
         -2    1    1    2  502    0 -0.24743242493E+02 -0.11806196407E+01 -0.46825556195E+03  0.46891032535E+03  0.25500000000E-02 0.  1.
<mgrwt>
<rscale>  0 0.82039285E+02</rscale>
<asrwt>0</asrwt>
<pdfrwt beam="2">  1        1 0.80230317E-01 0.82039285E+02</pdfrwt>
<pdfrwt beam="1">  1       -1 0.49638485E-03 0.82039285E+02</pdfrwt>
<totfact> 0.18481388E+05</totfact>
</mgrwt>
</event>
<event>
 4    1  0.1893769E-002  0.5632451E+02  0.7818608E-02  0.1413937E+00
         -1   -1    0    0  501    0 -0.00000000000E+00  0.00000000000E+00  0.15833139908E+02  0.15833140710E+02  0.50400000000E-02 0. -1.
          1   -1    0    0    0  501  0.00000000000E+00 -0.00000000000E+00 -0.50091937366E+02  0.50091937619E+02  0.50400000000E-02 0. -1.
          2    1    1    2    0  502  0.22261676526E+02  0.13007369213E+02 -0.30389052140E+02  0.39853085101E+02  0.25500000000E-02 0. -1.
         -2    1    1    2  502    0 -0.22261676526E+02 -0.13007369213E+02 -0.38697453175E+01  0.26071993229E+02  0.25500000000E-02 0. -1.
<mgrwt>
<rscale>  0 0.56324513E+02</rscale>
<asrwt>0</asrwt>
<pdfrwt beam="2">  1        1 0.77064519E-02 0.56324513E+02</pdfrwt>
<pdfrwt beam="1">  1       -1 0.24358678E-02 0.56324513E+02</pdfrwt>
<totfact> 0.34310717E+05</totfact>
</mgrwt>
</event>
<event>
 4    1  0.1893769E-002  0.5600032E+02  0.7818608E-02  0.1415427E+00
         -1   -1    0    0  501    0 -0.00000000000E+00  0.00000000000E+00  0.57746225714E+00  0.57748425088E+00  0.50400000000E-02 0.  1.
          1   -1    0    0    0  501  0.00000000000E+00 -0.00000000000E+00 -0.13576542512E+04  0.13576542512E+04  0.50400000000E-02 0.  1.
          2    1    1    2    0  502 -0.24024146969E+02  0.13124603986E+02 -0.53588414217E+03  0.53658291876E+03  0.25500000000E-02 0.  1.
         -2    1    1    2  502    0  0.24024146969E+02 -0.13124603986E+02 -0.82119264678E+03  0.82164881671E+03  0.25500000000E-02 0.  1.
<mgrwt>
<rscale>  0 0.56000323E+02</rscale>
<asrwt>0</asrwt>
<pdfrwt beam="2">  1        1 0.20886733E+00 0.56000323E+02</pdfrwt>
<pdfrwt beam="1">  1       -1 0.88843127E-04 0.56000323E+02</pdfrwt>
<totfact> 0.41870388E+05</totfact>
</mgrwt>
</event>
<event>
 4    1  0.1893769E-002  0.6647606E+02  0.7818608E-02  0.1372504E+00
          1   -1    0    0    0  501  0.00000000000E+00  0.00000000000E+00  0.25678921805E+03  0.25678921809E+03  0.50400000000E-02 0.  1.
         -1   -1    0    0  501    0 -0.00000000000E+00 -0.00000000000E+00 -0.43022295103E+01  0.43022324624E+01  0.50400000000E-02 0.  1.
          2    1    1    2    0  502 -0.14659937024E+02 -0.29829791827E+02  0.12699183495E+03  0.13126940384E+03  0.25500000000E-02 0. -1.
         -2    1    1    2  502    0  0.14659937024E+02  0.29829791827E+02  0.12549515359E+03  0.12982204672E+03  0.25500000000E-02 0. -1.
<mgrwt>
<rscale>  0 0.66476057E+02</rscale>
<asrwt>0</asrwt>
<pdfrwt beam="1">  1        1 0.39506017E-01 0.66476057E+02</pdfrwt>
<pdfrwt beam="2">  1       -1 0.66188197E-03 0.66476057E+02</pdfrwt>
<totfact> 0.28492181E+05</totfact>
</mgrwt>
</event>
<event>
 4    1  0.1893769E-002  0.4255449E+02  0.7818608E-02  0.1490213E+00
          1   -1    0    0    0  501  0.00000000000E+00  0.00000000000E+00  0.16835310871E+04  0.16835310871E+04  0.50400000000E-02 0.  1.
         -1   -1    0    0  501    0 -0.00000000000E+00 -0.00000000000E+00 -0.26888809262E+00  0.26893532299E+00  0.50400000000E-02 0.  1.
          2    1    1    2    0  502 -0.13665289263E+02  0.15916066432E+02  0.98241748018E+03  0.98264142324E+03  0.25500000000E-02 0. -1.
         -2    1    1    2  502    0  0.13665289263E+02 -0.15916066432E+02  0.70084471883E+03  0.70115859919E+03  0.25500000000E-02 0. -1.
<mgrwt>
<rscale>  0 0.42554494E+02</rscale>
<asrwt>0</asrwt>
<pdfrwt beam="1">  1        1 0.25900399E+00 0.42554494E+02</pdfrwt>
<pdfrwt beam="2">  1       -1 0.41371159E-04 0.42554494E+02</pdfrwt>
<totfact> 0.69514827E+05</totfact>
</mgrwt>
</event>
<event>
 4    1  0.1893769E-002  0.5586862E+02  0.7818608E-02  0.1416035E+00
          1   -1    0    0    0  501  0.00000000000E+00  0.00000000000E+00  0.25524652780E+01  0.25524702539E+01  0.50400000000E-02 0. -1.
         -1   -1    0    0  501    0 -0.00000000000E+00 -0.00000000000E+00 -0.30571422114E+03  0.30571422118E+03  0.50400000000E-02 0. -1.
          2    1    1    2    0  502  0.23361428397E+02  0.13294044362E+02 -0.19354366636E+03  0.19540122504E+03  0.25500000000E-02 0. -1.
         -2    1    1    2  502    0 -0.23361428397E+02 -0.13294044362E+02 -0.10961808950E+03  0.11286546639E+03  0.25500000000E-02 0. -1.
<mgrwt>
<rscale>  0 0.55868621E+02</rscale>
<asrwt>0</asrwt>
<pdfrwt beam="1">  1        1 0.39268759E-03 0.55868621E+02</pdfrwt>
<pdfrwt beam="2">  1       -1 0.47032929E-01 0.55868621E+02</pdfrwt>
<totfact> 0.21113011E+05</totfact>
</mgrwt>
</event>
<event>
 4    1  0.1893769E-002  0.5349875E+02  0.7818608E-02  0.1427335E+00
         -1   -1    0    0  501    0 -0.00000000000E+00  0.00000000000E+00  0.66452322205E+02  0.66452322396E+02  0.50400000000E-02 0. -1.
          1   -1    0    0    0  501  0.00000000000E+00 -0.00000000000E+00 -0.10767555847E+02  0.10767557026E+02  0.50400000000E-02 0. -1.
          2    1    1    2    0  502  0.26111549793E+02  0.52463380214E+01  0.24250663823E+02  0.36019880588E+02  0.25500000000E-02 0. -1.
         -2    1    1    2  502    0 -0.26111549793E+02 -0.52463380214E+01  0.31434102535E+02  0.41199998834E+02  0.25500000000E-02 0. -1.
<mgrwt>
<rscale>  0 0.53498753E+02</rscale>
<asrwt>0</asrwt>
<pdfrwt beam="2">  1        1 0.16565472E-02 0.53498753E+02</pdfrwt>
<pdfrwt beam="1">  1       -1 0.10223434E-01 0.53498753E+02</pdfrwt>
<totfact> 0.33424400E+05</totfact>
</mgrwt>
</event>
<event>
 4    1  0.1893769E-002  0.4663135E+02  0.7818608E-02  0.1464407E+00
          1   -1    0    0    0  501  0.00000000000E+00  0.00000000000E+00  0.81688545697E+02  0.81688545853E+02  0.50400000000E-02 0.  1.
         -1   -1    0    0  501    0 -0.00000000000E+00 -0.00000000000E+00 -0.66547952221E+01  0.66547971306E+01  0.50400000000E-02 0.  1.
          2    1    1    2    0  502 -0.23019432683E+02  0.23325091598E+01  0.42970204666E+02  0.48803415614E+02  0.25500000000E-02 0.  1.
         -2    1    1    2  502    0  0.23019432683E+02 -0.23325091598E+01  0.32063545809E+02  0.39539927369E+02  0.25500000000E-02 0.  1.
<mgrwt>
<rscale>  0 0.46631347E+02</rscale>
<asrwt>0</asrwt>
<pdfrwt beam="1">  1        1 0.12567469E-01 0.46631347E+02</pdfrwt>
<pdfrwt beam="2">  1       -1 0.10238148E-02 0.46631347E+02</pdfrwt>
<totfact> 0.58656431E+05</totfact>
</mgrwt>
</event>
<event>
 4    1  0.1893769E-002  0.6570803E+02  0.7818608E-02  0.1375328E+00
         -1   -1    0    0  501    0 -0.00000000000E+00  0.00000000000E+00  0.79659939311E+03  0.79659939313E+03  0.50400000000E-02 0.  1.
          1   -1    0    0    0  501  0.00000000000E+00 -0.00000000000E+00 -0.13549879290E+01  0.13549973023E+01  0.50400000000E-02 0.  1.
          2    1    1    2    0  502  0.11698021001E+01 -0.20499040395E+02  0.86157429748E+02  0.88570208317E+02  0.25500000000E-02 0.  1.
         -2    1    1    2  502    0 -0.11698021001E+01  0.20499040395E+02  0.70908697544E+03  0.70938418211E+03  0.25500000000E-02 0.  1.
<mgrwt>
<rscale>  0 0.65708030E+02</rscale>
<asrwt>0</asrwt>
<pdfrwt beam="2">  1        1 0.20846012E-03 0.65708030E+02</pdfrwt>
<pdfrwt beam="1">  1       -1 0.12255392E+00 0.65708030E+02</pdfrwt>
<totfact> 0.76591775E+04</totfact>
</mgrwt>
</event>
<event>
 4    1  0.1893769E-002  0.4471591E+02  0.7818608E-02  0.1476123E+00
          1   -1    0    0    0  501  0.00000000000E+00  0.00000000000E+00  0.58660397519E+03  0.58660397521E+03  0.50400000000E-02 0.  1.
         -1   -1    0    0  501    0 -0.00000000000E+00 -0.00000000000E+00 -0.85214880262E+00  0.85216370692E+00  0.50400000000E-02 0.  1.
          2    1    1    2    0  502 -0.21265482934E+02  0.68676523864E+01  0.28365304773E+03  0.28453196113E+03  0.25500000000E-02 0.  1.
         -2    1    1    2  502    0  0.21265482934E+02 -0.68676523864E+01  0.30209877866E+03  0.30292417779E+03  0.25500000000E-02 0.  1.
<mgrwt>
<rscale>  0 0.44715915E+02</rscale>
<asrwt>0</asrwt>
<pdfrwt beam="1">  1        1 0.90246640E-01 0.44715915E+02</pdfrwt>
<pdfrwt beam="2">  1       -1 0.13110115E-03 0.44715915E+02</pdfrwt>
<totfact> 0.86989223E+05</totfact>
</mgrwt>
</event>
<event>
 4    1  0.1893769E-002  0.9909677E+02  0.7818608E-02  0.1282207E+00
         -1   -1    0    0  501    0 -0.00000000000E+00  0.00000000000E+00  0.10940651540E+02  0.10940652701E+02  0.50400000000E-02 0.  1.
          1   -1    0    0    0  501  0.00000000000E+00 -0.00000000000E+00 -0.22439635256E+03  0.22439635262E+03  0.50400000000E-02 0.  1.
          2    1    1    2    0  502  0.22532609654E+02  0.38270409040E+02 -0.15890366689E+03  0.16499308490E+03  0.25500000000E-02 0.  1.
         -2    1    1    2  502    0 -0.22532609654E+02 -0.38270409040E+02 -0.54552034128E+02  0.70343920419E+02  0.25500000000E-02 0.  1.
<mgrwt>
<rscale>  0 0.99096770E+02</rscale>
<asrwt>0</asrwt>
<pdfrwt beam="2">  1        1 0.34522512E-01 0.99096770E+02</pdfrwt>
<pdfrwt beam="1">  1       -1 0.16831774E-02 0.99096770E+02</pdfrwt>
<totfact> 0.96782570E+04</totfact>
</mgrwt>
</event>
<event>
 4    1  0.1893769E-002  0.5521790E+02  0.7818608E-02  0.1419071E+00
         -1   -1    0    0  501    0 -0.00000000000E+00  0.00000000000E+00  0.27869838742E+01  0.27869884314E+01  0.50400000000E-02 0. -1.
          1   -1    0    0    0  501  0.00000000000E+00 -0.00000000000E+00 -0.27350478110E+03  0.27350478115E+03  0.50400000000E-02 0. -1.
          2    1    1    2    0  502  0.18706247509E+02  0.19288254276E+02 -0.16712077057E+03  0.16926698559E+03  0.25500000000E-02 0. -1.
         -2    1    1    2  502    0 -0.18706247509E+02 -0.19288254276E+02 -0.10359702666E+03  0.10702478399E+03  0.25500000000E-02 0. -1.
<mgrwt>
<rscale>  0 0.55217897E+02</rscale>
<asrwt>0</asrwt>
<pdfrwt beam="2">  1        1 0.42077638E-01 0.55217897E+02</pdfrwt>
<pdfrwt beam="1">  1       -1 0.42876732E-03 0.55217897E+02</pdfrwt>
<totfact> 0.46285033E+05</totfact>
</mgrwt>
</event>
<event>
 4    1  0.1893769E-002  0.8248996E+02  0.7818608E-02  0.1322130E+00
          1   -1    0    0    0  501  0.00000000000E+00  0.00000000000E+00  0.45507232813E+03  0.45507232815E+03  0.50400000000E-02 0.  1.
         -1   -1    0    0  501    0 -0.00000000000E+00 -0.00000000000E+00 -0.37381914131E+01  0.37381948107E+01  0.50400000000E-02 0.  1.
          2    1    1    2    0  502 -0.33083412865E+02 -0.16379979166E+02  0.32797375946E+03  0.33004484972E+03  0.25500000000E-02 0. -1.
         -2    1    1    2  502    0  0.33083412865E+02  0.16379979166E+02  0.12336037725E+03  0.12876567324E+03  0.25500000000E-02 0. -1.
<mgrwt>
<rscale>  0 0.82489957E+02</rscale>
<asrwt>0</asrwt>
<pdfrwt beam="1">  1        1 0.70011068E-01 0.82489957E+02</pdfrwt>
<pdfrwt beam="2">  1       -1 0.57510712E-03 0.82489957E+02</pdfrwt>
<totfact> 0.17916696E+05</totfact>
</mgrwt>
</event>
<event>
 4    1  0.1893769E-002  0.6260176E+02  0.7818608E-02  0.1387227E+00
          1   -1    0    0    0  501  0.00000000000E+00  0.00000000000E+00  0.10056558910E+04  0.10056558911E+04  0.50400000000E-02 0.  1.
         -1   -1    0    0  501    0 -0.00000000000E+00 -0.00000000000E+00 -0.97422834950E+00  0.97424138620E+00  0.50400000000E-02 0.  1.
          2    1    1    2    0  502  0.30625433107E+02  0.64655451547E+01  0.49981812124E+03  0.50079723916E+03  0.25500000000E-02 0.  1.
         -2    1    1    2  502    0 -0.30625433107E+02 -0.64655451547E+01  0.50486354145E+03  0.50583289328E+03  0.25500000000E-02 0.  1.
<mgrwt>
<rscale>  0 0.62601759E+02</rscale>
<asrwt>0</asrwt>
<pdfrwt beam="1">  1        1 0.15471625E+00 0.62601759E+02</pdfrwt>
<pdfrwt beam="2">  1       -1 0.14988233E-03 0.62601759E+02</pdfrwt>
<totfact> 0.36023336E+05</totfact>
</mgrwt>
</event>
<event>
 4    1  0.1893769E-002  0.1269063E+03  0.7818608E-02  0.1232120E+00
         -1   -1    0    0  501    0 -0.00000000000E+00  0.00000000000E+00  0.99658794688E+03  0.99658794689E+03  0.50400000000E-02 0.  1.
          1   -1    0    0    0  501  0.00000000000E+00 -0.00000000000E+00 -0.40400842077E+01  0.40400873514E+01  0.50400000000E-02 0.  1.
          2    1    1    2    0  502 -0.25925120117E+02  0.50798396898E+02  0.71559440584E+03  0.71786345683E+03  0.25500000000E-02 0.  1.
         -2    1    1    2  502    0  0.25925120117E+02 -0.50798396898E+02  0.27695345683E+03  0.28276457741E+03  0.25500000000E-02 0.  1.
<mgrwt>
<rscale>  0 0.12690628E+03</rscale>
<asrwt>0</asrwt>
<pdfrwt beam="2">  1        1 0.62155150E-03 0.12690628E+03</pdfrwt>
<pdfrwt beam="1">  1       -1 0.15332126E+00 0.12690628E+03</pdfrwt>
<totfact> 0.10664775E+04</totfact>
</mgrwt>
</event>
<event>
 4    1  0.1893769E-002  0.4677373E+02  0.7818608E-02  0.1463563E+00
         -1   -1    0    0  501    0 -0.00000000000E+00  0.00000000000E+00  0.34300253709E+02  0.34300254079E+02  0.50400000000E-02 0. -1.
          1   -1    0    0    0  501  0.00000000000E+00 -0.00000000000E+00 -0.15945814075E+02  0.15945814871E+02  0.50400000000E-02 0. -1.
          2    1    1    2    0  502 -0.70615872446E+01  0.20829318476E+02  0.17718515795E+02  0.28243093511E+02  0.25500000000E-02 0. -1.
         -2    1    1    2  502    0  0.70615872446E+01 -0.20829318476E+02  0.63592383876E+00  0.22002975440E+02  0.25500000000E-02 0. -1.
<mgrwt>
<rscale>  0 0.46773732E+02</rscale>
<asrwt>0</asrwt>
<pdfrwt beam="2">  1        1 0.24532023E-02 0.46773732E+02</pdfrwt>
<pdfrwt beam="1">  1       -1 0.52769621E-02 0.46773732E+02</pdfrwt>
<totfact> 0.49968443E+05</totfact>
</mgrwt>
</event>
<event>
 4    1  0.1893769E-002  0.4184458E+02  0.7818608E-02  0.1495060E+00
         -1   -1    0    0  501    0 -0.00000000000E+00  0.00000000000E+00  0.23235802742E+00  0.23241268147E+00  0.50400000000E-02 0. -1.
          1   -1    0    0    0  501  0.00000000000E+00 -0.00000000000E+00 -0.18836905916E+04  0.18836905916E+04  0.50400000000E-02 0. -1.
          2    1    1    2    0  502 -0.13392362803E+01  0.20841820689E+02 -0.88536950679E+03  0.88561579627E+03  0.25500000000E-02 0.  1.
         -2    1    1    2  502    0  0.13392362803E+01 -0.20841820689E+02 -0.99808872674E+03  0.99830720797E+03  0.25500000000E-02 0.  1.
<mgrwt>
<rscale>  0 0.41844575E+02</rscale>
<asrwt>0</asrwt>
<pdfrwt beam="2">  1        1 0.28978633E+00 0.41844575E+02</pdfrwt>
<pdfrwt beam="1">  1       -1 0.35753102E-04 0.41844575E+02</pdfrwt>
<totfact> 0.63664948E+05</totfact>
</mgrwt>
</event>
<event>
 4    1  0.1893769E-002  0.5291741E+02  0.7818608E-02  0.1430212E+00
         -1   -1    0    0  501    0 -0.00000000000E+00  0.00000000000E+00  0.13078792715E+01  0.13078889825E+01  0.50400000000E-02 0.  1.
          1   -1    0    0    0  501  0.00000000000E+00 -0.00000000000E+00 -0.53526376890E+03  0.53526376892E+03  0.50400000000E-02 0.  1.
          2    1    1    2    0  502  0.25156211534E+02 -0.21654233900E+01 -0.18679084893E+03  0.18848964238E+03  0.25500000000E-02 0.  1.
         -2    1    1    2  502    0 -0.25156211534E+02  0.21654233900E+01 -0.34716504070E+03  0.34808201552E+03  0.25500000000E-02 0.  1.
<mgrwt>
<rscale>  0 0.52917407E+02</rscale>
<asrwt>0</asrwt>
<pdfrwt beam="2">  1        1 0.82348098E-01 0.52917407E+02</pdfrwt>
<pdfrwt beam="1">  1       -1 0.20121337E-03 0.52917407E+02</pdfrwt>
<totfact> 0.56959676E+05</totfact>
</mgrwt>
</event>
<event>
 4    1  0.1893769E-002  0.5941085E+02  0.7818608E-02  0.1400321E+00
         -1   -1    0    0  501    0 -0.00000000000E+00  0.00000000000E+00  0.32613112190E+02  0.32613112580E+02  0.50400000000E-02 0.  1.
          1   -1    0    0    0  501  0.00000000000E+00 -0.00000000000E+00 -0.27056979980E+02  0.27056980449E+02  0.50400000000E-02 0.  1.
          2    1    1    2    0  502  0.16209110436E+02  0.24874219033E+02  0.17989743940E+01  0.29743879185E+02  0.25500000000E-02 0.  1.
         -2    1    1    2  502    0 -0.16209110436E+02 -0.24874219033E+02  0.37571578166E+01  0.29926213843E+02  0.25500000000E-02 0.  1.
<mgrwt>
<rscale>  0 0.59410853E+02</rscale>
<asrwt>0</asrwt>
<pdfrwt beam="2">  1        1 0.41626124E-02 0.59410853E+02</pdfrwt>
<pdfrwt beam="1">  1       -1 0.50174020E-02 0.59410853E+02</pdfrwt>
<totfact> 0.27974371E+05</totfact>
</mgrwt>
</event>
<event>
 4    1  0.1893769E-002  0.9404746E+02  0.7818608E-02  0.1293336E+00
          1   -1    0    0    0  501  0.00000000000E+00  0.00000000000E+00  0.98881473235E+02  0.98881473363E+02  0.50400000000E-02 0.  1.
         -1   -1    0    0  501    0 -0.00000000000E+00 -0.00000000000E+00 -0.22362440502E+02  0.22362441070E+02  0.50400000000E-02 0.  1.
          2    1    1    2    0  502 -0.19388963081E+02  0.89308147694E+01 -0.15755961281E+02  0.26531898994E+02  0.25500000000E-02 0.  1.
         -2    1    1    2  502    0  0.19388963081E+02 -0.89308147694E+01  0.92274994014E+02  0.94712015439E+02  0.25500000000E-02 0.  1.
<mgrwt>
<rscale>  0 0.94047458E+02</rscale>
<asrwt>0</asrwt>
<pdfrwt beam="1">  1        1 0.15212534E-01 0.94047458E+02</pdfrwt>
<pdfrwt beam="2">  1       -1 0.34403756E-02 0.94047458E+02</pdfrwt>
<totfact> 0.95782663E+04</totfact>
</mgrwt>
</event>
<event>
 4    1  0.1893769E-002  0.1090296E+03  0.7818608E-02  0.1262378E+00
          1   -1    0    0    0  501  0.00000000000E+00  0.00000000000E+00  0.78955829723E+01  0.78955845809E+01  0.50400000000E-02 0.  1.
         -1   -1    0    0  501    0 -0.00000000000E+00 -0.00000000000E+00 -0.37639556798E+03  0.37639556802E+03  0.50400000000E-02 0.  1.
          2    1    1    2    0  502 -0.84102135765E+01  0.51891117656E+02 -0.13336266604E+03  0.14334929537E+03  0.25500000000E-02 0. -1.
         -2    1    1    2  502    0  0.84102135765E+01 -0.51891117656E+02 -0.23513731897E+03  0.24094185722E+03  0.25500000000E-02 0. -1.
<mgrwt>
<rscale>  0 0.10902959E+03</rscale>
<asrwt>0</asrwt>
<pdfrwt beam="1">  1        1 0.12147055E-02 0.10902959E+03</pdfrwt>
<pdfrwt beam="2">  1       -1 0.57906997E-01 0.10902959E+03</pdfrwt>
<totfact> 0.34272369E+04</totfact>
</mgrwt>
</event>
<event>
 4    1  0.1893769E-002  0.4135432E+02  0.7818608E-02  0.1498475E+00
         -1   -1    0    0  501    0 -0.00000000000E+00  0.00000000000E+00  0.39419808058E+01  0.39419840278E+01  0.50400000000E-02 0.  1.
          1   -1    0    0    0  501  0.00000000000E+00 -0.00000000000E+00 -0.10845938751E+03  0.10845938762E+03  0.50400000000E-02 0.  1.
          2    1    1    2    0  502 -0.20178495479E+02 -0.43086616295E+01 -0.55914156117E+02  0.59599740818E+02  0.25500000000E-02 0.  1.
         -2    1    1    2  502    0  0.20178495479E+02  0.43086616295E+01 -0.48603250583E+02  0.52801630832E+02  0.25500000000E-02 0.  1.
<mgrwt>
<rscale>  0 0.41354323E+02</rscale>
<asrwt>0</asrwt>
<pdfrwt beam="2">  1        1 0.16686058E-01 0.41354323E+02</pdfrwt>
<pdfrwt beam="1">  1       -1 0.60645893E-03 0.41354323E+02</pdfrwt>
<totfact> 0.81933911E+05</totfact>
</mgrwt>
</event>
<event>
 4    1  0.1893769E-002  0.4896885E+02  0.7818608E-02  0.1450984E+00
         -1   -1    0    0  501    0 -0.00000000000E+00  0.00000000000E+00  0.64850193789E+02  0.64850193985E+02  0.50400000000E-02 0. -1.
          1   -1    0    0    0  501  0.00000000000E+00 -0.00000000000E+00 -0.92441823126E+01  0.92441836865E+01  0.50400000000E-02 0. -1.
          2    1    1    2    0  502 -0.10141022687E+02  0.19814639978E+02  0.12370448390E+02  0.25465433405E+02  0.25500000000E-02 0.  1.
         -2    1    1    2  502    0  0.10141022687E+02 -0.19814639978E+02  0.43235563086E+02  0.48628944267E+02  0.25500000000E-02 0.  1.
<mgrwt>
<rscale>  0 0.48968850E+02</rscale>
<asrwt>0</asrwt>
<pdfrwt beam="2">  1        1 0.14221820E-02 0.48968850E+02</pdfrwt>
<pdfrwt beam="1">  1       -1 0.99769530E-02 0.48968850E+02</pdfrwt>
<totfact> 0.41716864E+05</totfact>
</mgrwt>
</event>
<event>
 4    1  0.1893769E-002  0.6875246E+02  0.7818608E-02  0.1364387E+00
          1   -1    0    0    0  501  0.00000000000E+00  0.00000000000E+00  0.43034212311E+01  0.43034241825E+01  0.50400000000E-02 0.  1.
         -1   -1    0    0  501    0 -0.00000000000E+00 -0.00000000000E+00 -0.27460122765E+03  0.27460122769E+03  0.50400000000E-02 0.  1.
          2    1    1    2    0  502  0.88731419443E+01 -0.31966908321E+02 -0.17168337364E+03  0.17485936254E+03  0.25500000000E-02 0.  1.
         -2    1    1    2  502    0 -0.88731419443E+01  0.31966908321E+02 -0.98614432773E+02  0.10404528934E+03  0.25500000000E-02 0.  1.
<mgrwt>
<rscale>  0 0.68752459E+02</rscale>
<asrwt>0</asrwt>
<pdfrwt beam="1">  1        1 0.66206525E-03 0.68752459E+02</pdfrwt>
<pdfrwt beam="2">  1       -1 0.42246329E-01 0.68752459E+02</pdfrwt>
<totfact> 0.13000176E+05</totfact>
</mgrwt>
</event>
<event>
 4    1  0.1893769E-002  0.4052736E+02  0.7818608E-02  0.1504366E+00
          1   -1    0    0    0  501  0.00000000000E+00  0.00000000000E+00  0.36410633550E+01  0.36410668432E+01  0.50400000000E-02 0. -1.
         -1   -1    0    0  501    0 -0.00000000000E+00 -0.00000000000E+00 -0.11277376966E+03  0.11277376978E+03  0.50400000000E-02 0. -1.
          2    1    1    2    0  502  0.10553307413E+02  0.17105213842E+02 -0.47155522500E+02  0.51260159449E+02  0.25500000000E-02 0. -1.
         -2    1    1    2  502    0 -0.10553307413E+02 -0.17105213842E+02 -0.61977183809E+02  0.65154677172E+02  0.25500000000E-02 0. -1.
<mgrwt>
<rscale>  0 0.40527356E+02</rscale>
<asrwt>0</asrwt>
<pdfrwt beam="1">  1        1 0.56016396E-03 0.40527356E+02</pdfrwt>
<pdfrwt beam="2">  1       -1 0.17349808E-01 0.40527356E+02</pdfrwt>
<totfact> 0.60965073E+05</totfact>
</mgrwt>
</event>
<event>
 4    1  0.1893769E-002  0.6663619E+02  0.7818608E-02  0.1371920E+00
          1   -1    0    0    0  501  0.00000000000E+00  0.00000000000E+00  0.27952187143E+01  0.27952232581E+01  0.50400000000E-02 0. -1.
         -1   -1    0    0  501    0 -0.00000000000E+00 -0.00000000000E+00 -0.39714046002E+03  0.39714046005E+03  0.50400000000E-02 0. -1.
          2    1    1    2    0  502  0.24567652376E+02 -0.14095145922E+02 -0.30247822367E+03  0.30380144582E+03  0.25500000000E-02 0.  1.
         -2    1    1    2  502    0 -0.24567652376E+02  0.14095145922E+02 -0.91867017635E+02  0.96134237489E+02  0.25500000000E-02 0.  1.
<mgrwt>
<rscale>  0 0.66636187E+02</rscale>
<asrwt>0</asrwt>
<pdfrwt beam="1">  1        1 0.43003431E-03 0.66636187E+02</pdfrwt>
<pdfrwt beam="2">  1       -1 0.61098488E-01 0.66636187E+02</pdfrwt>
<totfact> 0.12035109E+05</totfact>
</mgrwt>
</event>
<event>
 4    1  0.1893769E-002  0.6604819E+02  0.7818608E-02  0.1374071E+00
          1   -1    0    0    0  501  0.00000000000E+00  0.00000000000E+00  0.29489952204E+02  0.29489952635E+02  0.50400000000E-02 0.  1.
         -1   -1    0    0  501    0 -0.00000000000E+00 -0.00000000000E+00 -0.36981780935E+02  0.36981781278E+02  0.50400000000E-02 0.  1.
          2    1    1    2    0  502 -0.31256941735E+02  0.82090235347E+01  0.30952115816E+01  0.32464824276E+02  0.25500000000E-02 0. -1.
         -2    1    1    2  502    0  0.31256941735E+02 -0.82090235347E+01 -0.10587040312E+02  0.34006909637E+02  0.25500000000E-02 0. -1.
<mgrwt>
<rscale>  0 0.66048194E+02</rscale>
<asrwt>0</asrwt>
<pdfrwt beam="1">  1        1 0.45369158E-02 0.66048194E+02</pdfrwt>
<pdfrwt beam="2">  1       -1 0.56895048E-02 0.66048194E+02</pdfrwt>
<totfact> 0.21240987E+05</totfact>
</mgrwt>
</event>
<event>
 4    1  0.1893769E-002  0.7982330E+02  0.7818608E-02  0.1329554E+00
         -1   -1    0    0  501    0 -0.00000000000E+00  0.00000000000E+00  0.59457508433E+00  0.59459644508E+00  0.50400000000E-02 0.  1.
          1   -1    0    0    0  501  0.00000000000E+00 -0.00000000000E+00 -0.26790749828E+04  0.26790749828E+04  0.50400000000E-02 0.  1.
          2    1    1    2    0  502 -0.30682611415E+02 -0.41694503665E+01 -0.49388019052E+03  0.49484992630E+03  0.25500000000E-02 0.  1.
         -2    1    1    2  502    0  0.30682611415E+02  0.41694503665E+01 -0.21846002172E+04  0.21848196530E+04  0.25500000000E-02 0.  1.
<mgrwt>
<rscale>  0 0.79823301E+02</rscale>
<asrwt>0</asrwt>
<pdfrwt beam="2">  1        1 0.41215572E+00 0.79823301E+02</pdfrwt>
<pdfrwt beam="1">  1       -1 0.91476879E-04 0.79823301E+02</pdfrwt>
<totfact> 0.62693602E+04</totfact>
</mgrwt>
</event>
<event>
 4    1  0.1893769E-002  0.5723318E+02  0.7818608E-02  0.1409824E+00
          1   -1    0    0    0  501  0.00000000000E+00  0.00000000000E+00  0.17783888307E+02  0.17783889021E+02  0.50400000000E-02 0. -1.
         -1   -1    0    0  501    0 -0.00000000000E+00 -0.00000000000E+00 -0.46047819097E+02  0.46047819373E+02  0.50400000000E-02 0. -1.
          2    1    1    2    0  502 -0.12462725962E+02 -0.25465574169E+02 -0.18465027585E+02  0.33834483244E+02  0.25500000000E-02 0. -1.
         -2    1    1    2  502    0  0.12462725962E+02  0.25465574169E+02 -0.97989032052E+01  0.29997225150E+02  0.25500000000E-02 0. -1.
<mgrwt>
<rscale>  0 0.57233183E+02</rscale>
<asrwt>0</asrwt>
<pdfrwt beam="1">  1        1 0.27359829E-02 0.57233183E+02</pdfrwt>
<pdfrwt beam="2">  1       -1 0.70842799E-02 0.57233183E+02</pdfrwt>
<totfact> 0.29550449E+05</totfact>
</mgrwt>
</event>
<event>
 4    1  0.1893769E-002  0.7085918E+02  0.7818608E-02  0.1357196E+00
         -1   -1    0    0  501    0 -0.00000000000E+00  0.00000000000E+00  0.15052000993E+02  0.15052001837E+02  0.50400000000E-02 0. -1.
          1   -1    0    0    0  501  0.00000000000E+00 -0.00000000000E+00 -0.83394611596E+02  0.83394611748E+02  0.50400000000E-02 0. -1.
          2    1    1    2    0  502 -0.13841506790E+01 -0.26771229419E+02 -0.66355798729E+02  0.71566099720E+02  0.25500000000E-02 0. -1.
         -2    1    1    2  502    0  0.13841506790E+01  0.26771229419E+02 -0.19868118739E+01  0.26880513864E+02  0.25500000000E-02 0. -1.
<mgrwt>
<rscale>  0 0.70859179E+02</rscale>
<asrwt>0</asrwt>
<pdfrwt beam="2">  1        1 0.12829940E-01 0.70859179E+02</pdfrwt>
<pdfrwt beam="1">  1       -1 0.23156926E-02 0.70859179E+02</pdfrwt>
<totfact> 0.19998944E+05</totfact>
</mgrwt>
</event>
<event>
 4    1  0.1893769E-002  0.7586037E+02  0.7818608E-02  0.1341227E+00
          1   -1    0    0    0  501  0.00000000000E+00  0.00000000000E+00  0.37174887824E+03  0.37174887827E+03  0.50400000000E-02 0.  1.
         -1   -1    0    0  501    0 -0.00000000000E+00 -0.00000000000E+00 -0.38700813301E+01  0.38700846119E+01  0.50400000000E-02 0.  1.
          2    1    1    2    0  502  0.28265824822E+02 -0.66303030957E+01  0.63081245887E+02  0.69441783971E+02  0.25500000000E-02 0. -1.
         -2    1    1    2  502    0 -0.28265824822E+02  0.66303030957E+01  0.30479755102E+03  0.30617717891E+03  0.25500000000E-02 0. -1.
<mgrwt>
<rscale>  0 0.75860372E+02</rscale>
<asrwt>0</asrwt>
<pdfrwt beam="1">  1        1 0.57192153E-01 0.75860372E+02</pdfrwt>
<pdfrwt beam="2">  1       -1 0.59539720E-03 0.75860372E+02</pdfrwt>
<totfact> 0.21619850E+05</totfact>
</mgrwt>
</event>
<event>
 4    1  0.1893769E-002  0.5802409E+02  0.7818608E-02  0.1406316E+00
         -1   -1    0    0  501    0 -0.00000000000E+00  0.00000000000E+00  0.45686754461E+02  0.45686754739E+02  0.50400000000E-02 0. -1.
          1   -1    0    0    0  501  0.00000000000E+00 -0.00000000000E+00 -0.18423257229E+02  0.18423257919E+02  0.50400000000E-02 0. -1.
          2    1    1    2    0  502 -0.17034808676E+02  0.23318611189E+02  0.16708914728E+02  0.33363605505E+02  0.25500000000E-02 0.  1.
         -2    1    1    2  502    0  0.17034808676E+02 -0.23318611189E+02  0.10554582504E+02  0.30746407152E+02  0.25500000000E-02 0.  1.
<mgrwt>
<rscale>  0 0.58024094E+02</rscale>
<asrwt>0</asrwt>
<pdfrwt beam="2">  1        1 0.28343474E-02 0.58024094E+02</pdfrwt>
<pdfrwt beam="1">  1       -1 0.70287314E-02 0.58024094E+02</pdfrwt>
<totfact> 0.28588231E+05</totfact>
</mgrwt>
</event>
<event>
 4    1  0.1893769E-002  0.5633042E+02  0.7818608E-02  0.1413910E+00
          1   -1    0    0    0  501  0.00000000000E+00  0.00000000000E+00  0.45874585476E+03  0.45874585479E+03  0.50400000000E-02 0.  1.
         -1   -1    0    0  501    0 -0.00000000000E+00 -0.00000000000E+00 -0.17292306695E+01  0.17292380142E+01  0.50400000000E-02 0.  1.
          2    1    1    2    0  502 -0.26380935518E+02  0.48874329988E+01  0.29856095831E+03  0.29976405154E+03  0.25500000000E-02 0. -1.
         -2    1    1    2  502    0  0.26380935518E+02 -0.48874329988E+01  0.15845566578E+03  0.16071104127E+03  0.25500000000E-02 0. -1.
<mgrwt>
<rscale>  0 0.56330422E+02</rscale>
<asrwt>0</asrwt>
<pdfrwt beam="1">  1        1 0.70576254E-01 0.56330422E+02</pdfrwt>
<pdfrwt beam="2">  1       -1 0.26603618E-03 0.56330422E+02</pdfrwt>
<totfact> 0.47864822E+05</totfact>
</mgrwt>
</event>
<event>
 4    1  0.1893769E-002  0.4799911E+02  0.7818608E-02  0.1456443E+00
         -1   -1    0    0  501    0 -0.00000000000E+00  0.00000000000E+00  0.19170340349E+01  0.19170406601E+01  0.50400000000E-02 0.  1.
          1   -1    0    0    0  501  0.00000000000E+00 -0.00000000000E+00 -0.30045250013E+03  0.30045250018E+03  0.50400000000E-02 0.  1.
          2    1    1    2    0  502 -0.22147194033E+02 -0.61074956798E+01 -0.10554235566E+03  0.10801383500E+03  0.25500000000E-02 0.  1.
         -2    1    1    2  502    0  0.22147194033E+02  0.61074956798E+01 -0.19299311044E+03  0.19435570583E+03  0.25500000000E-02 0.  1.
<mgrwt>
<rscale>  0 0.47999112E+02</rscale>
<asrwt>0</asrwt>
<pdfrwt beam="2">  1        1 0.46223425E-01 0.47999112E+02</pdfrwt>
<pdfrwt beam="1">  1       -1 0.29492906E-03 0.47999112E+02</pdfrwt>
<totfact> 0.66830426E+05</totfact>
</mgrwt>
</event>
<event>
 4    1  0.1893769E-002  0.7099349E+02  0.7818608E-02  0.1356747E+00
          1   -1    0    0    0  501  0.00000000000E+00  0.00000000000E+00  0.66820521771E+01  0.66820540779E+01  0.50400000000E-02 0.  1.
         -1   -1    0    0  501    0 -0.00000000000E+00 -0.00000000000E+00 -0.18856764578E+03  0.18856764585E+03  0.50400000000E-02 0.  1.
          2    1    1    2    0  502 -0.21847684601E+02  0.81952408942E+01 -0.17375043979E+02  0.29092532642E+02  0.25500000000E-02 0.  1.
         -2    1    1    2  502    0  0.21847684601E+02 -0.81952408942E+01 -0.16451054962E+03  0.16615716728E+03  0.25500000000E-02 0.  1.
<mgrwt>
<rscale>  0 0.70993494E+02</rscale>
<asrwt>0</asrwt>
<pdfrwt beam="1">  1        1 0.10280083E-02 0.70993494E+02</pdfrwt>
<pdfrwt beam="2">  1       -1 0.29010403E-01 0.70993494E+02</pdfrwt>
<totfact> 0.13465136E+05</totfact>
</mgrwt>
</event>
<event>
 4    1  0.1893769E-002  0.4613681E+02  0.7818608E-02  0.1467367E+00
         -1   -1    0    0  501    0 -0.00000000000E+00  0.00000000000E+00  0.79197158858E+01  0.79197174895E+01  0.50400000000E-02 0.  1.
          1   -1    0    0    0  501  0.00000000000E+00 -0.00000000000E+00 -0.67193232978E+02  0.67193233167E+02  0.50400000000E-02 0.  1.
          2    1    1    2    0  502  0.20936399717E+02 -0.96858904233E+01 -0.29710813034E+02  0.37614913586E+02  0.25500000000E-02 0.  1.
         -2    1    1    2  502    0 -0.20936399717E+02  0.96858904233E+01 -0.29562704058E+02  0.37498037071E+02  0.25500000000E-02 0.  1.
<mgrwt>
<rscale>  0 0.46136813E+02</rscale>
<asrwt>0</asrwt>
<pdfrwt beam="2">  1        1 0.10337420E-01 0.46136813E+02</pdfrwt>
<pdfrwt beam="1">  1       -1 0.12184180E-02 0.46136813E+02</pdfrwt>
<totfact> 0.58925624E+05</totfact>
</mgrwt>
</event>
<event>
 4    1  0.1893769E-002  0.4454692E+02  0.7818608E-02  0.1477190E+00
          1   -1    0    0    0  501  0.00000000000E+00  0.00000000000E+00  0.57074093281E+03  0.57074093283E+03  0.50400000000E-02 0.  1.
         -1   -1    0    0  501    0 -0.00000000000E+00 -0.00000000000E+00 -0.86922606990E+00  0.86924068140E+00  0.50400000000E-02 0.  1.
          2    1    1    2    0  502 -0.70098041175E+01  0.20456193234E+02  0.21641695235E+03  0.21749457572E+03  0.25500000000E-02 0.  1.
         -2    1    1    2  502    0  0.70098041175E+01 -0.20456193234E+02  0.35345475439E+03  0.35411559779E+03  0.25500000000E-02 0.  1.
<mgrwt>
<rscale>  0 0.44546923E+02</rscale>
<asrwt>0</asrwt>
<pdfrwt beam="1">  1        1 0.87806195E-01 0.44546923E+02</pdfrwt>
<pdfrwt beam="2">  1       -1 0.13372837E-03 0.44546923E+02</pdfrwt>
<totfact> 0.87644818E+05</totfact>
</mgrwt>
</event>
<event>
 4    1  0.1893769E-002  0.7135163E+02  0.7818608E-02  0.1355556E+00
          1   -1    0    0    0  501  0.00000000000E+00  0.00000000000E+00  0.25617486235E+04  0.25617486235E+04  0.50400000000E-02 0. -1.
         -1   -1    0    0  501    0 -0.00000000000E+00 -0.00000000000E+00 -0.49682118008E+00  0.49684674355E+00  0.50400000000E-02 0. -1.
          2    1    1    2    0  502 -0.20923269859E+02 -0.26132268022E+02  0.17234794553E+04  0.17238045456E+04  0.25500000000E-02 0. -1.
         -2    1    1    2  502    0  0.20923269859E+02  0.26132268022E+02  0.83777234702E+03  0.83844092462E+03  0.25500000000E-02 0. -1.
<mgrwt>
<rscale>  0 0.71351629E+02</rscale>
<asrwt>0</asrwt>
<pdfrwt beam="1">  1        1 0.39412375E+00 0.71351629E+02</pdfrwt>
<pdfrwt beam="2">  1       -1 0.76434331E-04 0.71351629E+02</pdfrwt>
<totfact> 0.94286330E+04</totfact>
</mgrwt>
</event>
<event>
 4    1  0.1893769E-002  0.6549333E+02  0.7818608E-02  0.1376125E+00
         -1   -1    0    0  501    0 -0.00000000000E+00  0.00000000000E+00  0.55329943339E+01  0.55329966294E+01  0.50400000000E-02 0.  1.
          1   -1    0    0    0  501  0.00000000000E+00 -0.00000000000E+00 -0.19380894765E+03  0.19380894772E+03  0.50400000000E-02 0.  1.
          2    1    1    2    0  502 -0.30431366589E+02  0.97751186341E+00 -0.57446518751E+02  0.65016352751E+02  0.25500000000E-02 0.  1.
         -2    1    1    2  502    0  0.30431366589E+02 -0.97751186341E+00 -0.13082943457E+03  0.13432559160E+03  0.25500000000E-02 0.  1.
<mgrwt>
<rscale>  0 0.65493329E+02</rscale>
<asrwt>0</asrwt>
<pdfrwt beam="2">  1        1 0.29816756E-01 0.65493329E+02</pdfrwt>
<pdfrwt beam="1">  1       -1 0.85123023E-03 0.65493329E+02</pdfrwt>
<totfact> 0.28126470E+05</totfact>
</mgrwt>
</event>
<event>
 4    1  0.1893769E-002  0.4919819E+02  0.7818608E-02  0.1449715E+00
         -1   -1    0    0  501    0 -0.00000000000E+00  0.00000000000E+00  0.54305408387E+02  0.54305408620E+02  0.50400000000E-02 0.  1.
          1   -1    0    0    0  501  0.00000000000E+00 -0.00000000000E+00 -0.11142820825E+02  0.11142821965E+02  0.50400000000E-02 0.  1.
          2    1    1    2    0  502  0.10702533645E+02  0.20625547560E+02  0.10843062023E+02  0.25642336850E+02  0.25500000000E-02 0.  1.
         -2    1    1    2  502    0 -0.10702533645E+02 -0.20625547560E+02  0.32319525539E+02  0.39805893736E+02  0.25500000000E-02 0.  1.
<mgrwt>
<rscale>  0 0.49198190E+02</rscale>
<asrwt>0</asrwt>
<pdfrwt beam="2">  1        1 0.17142803E-02 0.49198190E+02</pdfrwt>
<pdfrwt beam="1">  1       -1 0.83546782E-02 0.49198190E+02</pdfrwt>
<totfact> 0.42130129E+05</totfact>
</mgrwt>
</event>
<event>
 4    1  0.1893769E-002  0.7138360E+02  0.7818608E-02  0.1355450E+00
          1   -1    0    0    0  501  0.00000000000E+00  0.00000000000E+00  0.48757439000E+01  0.48757465049E+01  0.50400000000E-02 0.  1.
         -1   -1    0    0  501    0 -0.00000000000E+00 -0.00000000000E+00 -0.26127383828E+03  0.26127383832E+03  0.50400000000E-02 0.  1.
          2    1    1    2    0  502  0.32580485335E+02  0.13648523020E+02 -0.10913855397E+03  0.11471265918E+03  0.25500000000E-02 0. -1.
         -2    1    1    2  502    0 -0.32580485335E+02 -0.13648523020E+02 -0.14725954040E+03  0.15143692565E+03  0.25500000000E-02 0. -1.
<mgrwt>
<rscale>  0 0.71383602E+02</rscale>
<asrwt>0</asrwt>
<pdfrwt beam="1">  1        1 0.75011485E-03 0.71383602E+02</pdfrwt>
<pdfrwt beam="2">  1       -1 0.40195964E-01 0.71383602E+02</pdfrwt>
<totfact> 0.12018911E+05</totfact>
</mgrwt>
</event>
<event>
 4    1  0.1893769E-002  0.1261385E+03  0.7818608E-02  0.1233301E+00
          1   -1    0    0    0  501  0.00000000000E+00  0.00000000000E+00  0.86860123682E+01  0.86860138304E+01  0.50400000000E-02 0.  1.
         -1   -1    0    0  501    0 -0.00000000000E+00 -0.00000000000E+00 -0.45794680144E+03  0.45794680147E+03  0.50400000000E-02 0.  1.
          2    1    1    2    0  502  0.43363560565E+01  0.60072837337E+02 -0.15540355108E+03  0.16666677372E+03  0.25500000000E-02 0. -1.
         -2    1    1    2  502    0 -0.43363560565E+01 -0.60072837337E+02 -0.29385723800E+03  0.29996604158E+03  0.25500000000E-02 0. -1.
<mgrwt>
<rscale>  0 0.12613853E+03</rscale>
<asrwt>0</asrwt>
<pdfrwt beam="1">  1        1 0.13363101E-02 0.12613853E+03</pdfrwt>
<pdfrwt beam="2">  1       -1 0.70453336E-01 0.12613853E+03</pdfrwt>
<totfact> 0.20951780E+04</totfact>
</mgrwt>
</event>
<event>
 4    1  0.1893769E-002  0.4745876E+02  0.7818608E-02  0.1459551E+00
          1   -1    0    0    0  501  0.00000000000E+00  0.00000000000E+00  0.10451622603E+01  0.10451744122E+01  0.50400000000E-02 0.  1.
         -1   -1    0    0  501    0 -0.00000000000E+00 -0.00000000000E+00 -0.53874912749E+03  0.53874912752E+03  0.50400000000E-02 0.  1.
          2    1    1    2    0  502 -0.23540464172E+02 -0.99487125418E+00 -0.30090217939E+03  0.30182323434E+03  0.25500000000E-02 0. -1.
         -2    1    1    2  502    0  0.23540464172E+02  0.99487125418E+00 -0.23680178585E+03  0.23797106759E+03  0.25500000000E-02 0. -1.
<mgrwt>
<rscale>  0 0.47458763E+02</rscale>
<asrwt>0</asrwt>
<pdfrwt beam="1">  1        1 0.16079556E-03 0.47458763E+02</pdfrwt>
<pdfrwt beam="2">  1       -1 0.82884260E-01 0.47458763E+02</pdfrwt>
<totfact> 0.23662848E+05</totfact>
</mgrwt>
</event>
<event>
 4    1  0.1893769E-002  0.4730556E+02  0.7818608E-02  0.1460441E+00
         -1   -1    0    0  501    0 -0.00000000000E+00  0.00000000000E+00  0.82586270039E+00  0.82587807907E+00  0.50400000000E-02 0.  1.
          1   -1    0    0    0  501  0.00000000000E+00 -0.00000000000E+00 -0.67741146349E+03  0.67741146351E+03  0.50400000000E-02 0.  1.
          2    1    1    2    0  502  0.18348326200E+02  0.14418175718E+02 -0.28293270921E+03  0.28389340044E+03  0.25500000000E-02 0. -1.
         -2    1    1    2  502    0 -0.18348326200E+02 -0.14418175718E+02 -0.39365289158E+03  0.39434394115E+03  0.25500000000E-02 0. -1.
<mgrwt>
<rscale>  0 0.47305563E+02</rscale>
<asrwt>0</asrwt>
<pdfrwt beam="2">  1        1 0.10421670E+00 0.47305563E+02</pdfrwt>
<pdfrwt beam="1">  1       -1 0.12705753E-03 0.47305563E+02</pdfrwt>
<totfact> 0.76107295E+05</totfact>
</mgrwt>
</event>
<event>
 4    1  0.1893769E-002  0.4566759E+02  0.7818608E-02  0.1470217E+00
          1   -1    0    0    0  501  0.00000000000E+00  0.00000000000E+00  0.16504431916E+03  0.16504431923E+03  0.50400000000E-02 0.  1.
         -1   -1    0    0  501    0 -0.00000000000E+00 -0.00000000000E+00 -0.31590415138E+01  0.31590455342E+01  0.50400000000E-02 0.  1.
          2    1    1    2    0  502 -0.16881213344E+02  0.15113724576E+02  0.70536567890E+02  0.74086486290E+02  0.25500000000E-02 0.  1.
         -2    1    1    2  502    0  0.16881213344E+02 -0.15113724576E+02  0.91348709751E+02  0.94116878477E+02  0.25500000000E-02 0.  1.
<mgrwt>
<rscale>  0 0.45667590E+02</rscale>
<asrwt>0</asrwt>
<pdfrwt beam="1">  1        1 0.25391438E-01 0.45667590E+02</pdfrwt>
<pdfrwt beam="2">  1       -1 0.48600662E-03 0.45667590E+02</pdfrwt>
<totfact> 0.68220499E+05</totfact>
</mgrwt>
</event>
<event>
 4    1  0.1893769E-002  0.8523508E+02  0.7818608E-02  0.1314819E+00
          1   -1    0    0    0  501  0.00000000000E+00  0.00000000000E+00  0.20873842287E+02  0.20873842895E+02  0.50400000000E-02 0.  1.
         -1   -1    0    0  501    0 -0.00000000000E+00 -0.00000000000E+00 -0.87011040533E+02  0.87011040679E+02  0.50400000000E-02 0.  1.
          2    1    1    2    0  502 -0.16305984998E+02  0.36090976011E+02 -0.52993793774E+02  0.66157281392E+02  0.25500000000E-02 0.  1.
         -2    1    1    2  502    0  0.16305984998E+02 -0.36090976011E+02 -0.13143404472E+02  0.41727602181E+02  0.25500000000E-02 0.  1.
<mgrwt>
<rscale>  0 0.85235081E+02</rscale>
<asrwt>0</asrwt>
<pdfrwt beam="1">  1        1 0.32113605E-02 0.85235081E+02</pdfrwt>
<pdfrwt beam="2">  1       -1 0.13386314E-01 0.85235081E+02</pdfrwt>
<totfact> 0.99156862E+04</totfact>
</mgrwt>
</event>
<event>
 4    1  0.1893769E-002  0.4300695E+02  0.7818608E-02  0.1487182E+00
          1   -1    0    0    0  501  0.00000000000E+00  0.00000000000E+00  0.68599677723E+03  0.68599677725E+03  0.50400000000E-02 0. -1.
         -1   -1    0    0  501    0 -0.00000000000E+00 -0.00000000000E+00 -0.67404549297E+00  0.67406433535E+00  0.50400000000E-02 0. -1.
          2    1    1    2    0  502 -0.15482932614E+02 -0.13594867382E+02  0.24442142497E+03  0.24528834993E+03  0.25500000000E-02 0.  1.
         -2    1    1    2  502    0  0.15482932614E+02  0.13594867382E+02  0.44090130677E+03  0.44138249165E+03  0.25500000000E-02 0.  1.
<mgrwt>
<rscale>  0 0.43006953E+02</rscale>
<asrwt>0</asrwt>
<pdfrwt beam="1">  1        1 0.10553762E+00 0.43006953E+02</pdfrwt>
<pdfrwt beam="2">  1       -1 0.10370110E-03 0.43006953E+02</pdfrwt>
<totfact> 0.96105315E+05</totfact>
</mgrwt>
</event>
<event>
 4    1  0.1893769E-002  0.4746820E+02  0.7818608E-02  0.1459496E+00
         -1   -1    0    0  501    0 -0.00000000000E+00  0.00000000000E+00  0.22577810859E+02  0.22577811421E+02  0.50400000000E-02 0. -1.
          1   -1    0    0    0  501  0.00000000000E+00 -0.00000000000E+00 -0.24949609086E+02  0.24949609595E+02  0.50400000000E-02 0. -1.
          2    1    1    2    0  502 -0.72733258172E+01 -0.21589710647E+02  0.54775291365E+01  0.23431180214E+02  0.25500000000E-02 0. -1.
         -2    1    1    2  502    0  0.72733258172E+01  0.21589710647E+02 -0.78493273637E+01  0.24096240803E+02  0.25500000000E-02 0. -1.
<mgrwt>
<rscale>  0 0.47468203E+02</rscale>
<asrwt>0</asrwt>
<pdfrwt beam="2">  1        1 0.38384015E-02 0.47468203E+02</pdfrwt>
<pdfrwt beam="1">  1       -1 0.34735094E-02 0.47468203E+02</pdfrwt>
<totfact> 0.50028821E+05</totfact>
</mgrwt>
</event>
<event>
 4    1  0.1893769E-002  0.5578622E+02  0.7818608E-02  0.1416417E+00
         -1   -1    0    0  501    0 -0.00000000000E+00  0.00000000000E+00  0.56486905701E+03  0.56486905703E+03  0.50400000000E-02 0.  1.
          1   -1    0    0    0  501  0.00000000000E+00 -0.00000000000E+00 -0.13773511528E+01  0.13773603739E+01  0.50400000000E-02 0.  1.
          2    1    1    2    0  502  0.22478608107E+02 -0.61105842787E+00  0.44926085804E+03  0.44982327617E+03  0.25500000000E-02 0. -1.
         -2    1    1    2  502    0 -0.22478608107E+02  0.61105842787E+00  0.11423084782E+03  0.11642314123E+03  0.25500000000E-02 0. -1.
<mgrwt>
<rscale>  0 0.55786223E+02</rscale>
<asrwt>0</asrwt>
<pdfrwt beam="2">  1        1 0.21190072E-03 0.55786223E+02</pdfrwt>
<pdfrwt beam="1">  1       -1 0.86903003E-01 0.55786223E+02</pdfrwt>
<totfact> 0.15338535E+05</totfact>
</mgrwt>
</event>
<event>
 4    1  0.1893769E-002  0.6984391E+02  0.7818608E-02  0.1360625E+00
          1   -1    0    0    0  501  0.00000000000E+00  0.00000000000E+00  0.10167383178E+04  0.10167383179E+04  0.50400000000E-02 0. -1.
         -1   -1    0    0  501    0 -0.00000000000E+00 -0.00000000000E+00 -0.11994604968E+01  0.11994710855E+01  0.50400000000E-02 0. -1.
          2    1    1    2    0  502 -0.23706986203E+02 -0.13702169689E+02  0.19187907715E+03  0.19382298858E+03  0.25500000000E-02 0.  1.
         -2    1    1    2  502    0  0.23706986203E+02  0.13702169689E+02  0.82365978019E+03  0.82411480035E+03  0.25500000000E-02 0.  1.
<mgrwt>
<rscale>  0 0.69843907E+02</rscale>
<asrwt>0</asrwt>
<pdfrwt beam="1">  1        1 0.15642124E+00 0.69843907E+02</pdfrwt>
<pdfrwt beam="2">  1       -1 0.18453324E-03 0.69843907E+02</pdfrwt>
<totfact> 0.27141642E+05</totfact>
</mgrwt>
</event>
<event>
 4    1  0.1893769E-002  0.4601951E+02  0.7818608E-02  0.1468076E+00
         -1   -1    0    0  501    0 -0.00000000000E+00  0.00000000000E+00  0.31145138001E+02  0.31145138409E+02  0.50400000000E-02 0. -1.
          1   -1    0    0    0  501  0.00000000000E+00 -0.00000000000E+00 -0.16999401154E+02  0.16999401901E+02  0.50400000000E-02 0. -1.
          2    1    1    2    0  502  0.75278163239E+01  0.21620468656E+02  0.94895216435E+01  0.24782326587E+02  0.25500000000E-02 0.  1.
         -2    1    1    2  502    0 -0.75278163239E+01 -0.21620468656E+02  0.46562152035E+01  0.23362213723E+02  0.25500000000E-02 0.  1.
<mgrwt>
<rscale>  0 0.46019506E+02</rscale>
<asrwt>0</asrwt>
<pdfrwt beam="2">  1        1 0.26152926E-02 0.46019506E+02</pdfrwt>
<pdfrwt beam="1">  1       -1 0.47915597E-02 0.46019506E+02</pdfrwt>
<totfact> 0.52436682E+05</totfact>
</mgrwt>
</event>
<event>
 4    1  0.1893769E-002  0.6891361E+02  0.7818608E-02  0.1363827E+00
         -1   -1    0    0  501    0 -0.00000000000E+00  0.00000000000E+00  0.17862560702E+03  0.17862560709E+03  0.50400000000E-02 0. -1.
          1   -1    0    0    0  501  0.00000000000E+00 -0.00000000000E+00 -0.66467029886E+01  0.66467048994E+01  0.50400000000E-02 0. -1.
          2    1    1    2    0  502  0.15201848431E+02 -0.13992459777E+02  0.11854558351E+02  0.23820488797E+02  0.25500000000E-02 0.  1.
         -2    1    1    2  502    0 -0.15201848431E+02  0.13992459777E+02  0.16012434568E+03  0.16145182319E+03  0.25500000000E-02 0.  1.
<mgrwt>
<rscale>  0 0.68913614E+02</rscale>
<asrwt>0</asrwt>
<pdfrwt beam="2">  1        1 0.10225699E-02 0.68913614E+02</pdfrwt>
<pdfrwt beam="1">  1       -1 0.27480862E-01 0.68913614E+02</pdfrwt>
<totfact> 0.14735912E+05</totfact>
</mgrwt>
</event>
<event>
 4    1  0.1893769E-002  0.5297308E+02  0.7818608E-02  0.1429935E+00
          1   -1    0    0    0  501  0.00000000000E+00  0.00000000000E+00  0.10036773363E+04  0.10036773363E+04  0.50400000000E-02 0. -1.
         -1   -1    0    0  501    0 -0.00000000000E+00 -0.00000000000E+00 -0.69895724371E+00  0.69897541454E+00  0.50400000000E-02 0. -1.
          2    1    1    2    0  502 -0.24419096111E+02 -0.99179335599E+01  0.45176082202E+03  0.45252900236E+03  0.25500000000E-02 0.  1.
         -2    1    1    2  502    0  0.24419096111E+02  0.99179335599E+01  0.55121755705E+03  0.55184730937E+03  0.25500000000E-02 0.  1.
<mgrwt>
<rscale>  0 0.52973075E+02</rscale>
<asrwt>0</asrwt>
<pdfrwt beam="1">  1        1 0.15441186E+00 0.52973075E+02</pdfrwt>
<pdfrwt beam="2">  1       -1 0.10753331E-03 0.52973075E+02</pdfrwt>
<totfact> 0.54910144E+05</totfact>
</mgrwt>
</event>
<event>
 4    1  0.1893769E-002  0.4522028E+02  0.7818608E-02  0.1472971E+00
          1   -1    0    0    0  501  0.00000000000E+00  0.00000000000E+00  0.30527228885E+03  0.30527228889E+03  0.50400000000E-02 0. -1.
         -1   -1    0    0  501    0 -0.00000000000E+00 -0.00000000000E+00 -0.16746271875E+01  0.16746347717E+01  0.50400000000E-02 0. -1.
          2    1    1    2    0  502  0.13417866489E+02  0.15437566484E+02  0.86388502080E+02  0.88776860151E+02  0.25500000000E-02 0. -1.
         -2    1    1    2  502    0 -0.13417866489E+02 -0.15437566484E+02  0.21720915958E+03  0.21817006351E+03  0.25500000000E-02 0. -1.
<mgrwt>
<rscale>  0 0.45220281E+02</rscale>
<asrwt>0</asrwt>
<pdfrwt beam="1">  1        1 0.46964913E-01 0.45220281E+02</pdfrwt>
<pdfrwt beam="2">  1       -1 0.25763584E-03 0.45220281E+02</pdfrwt>
<totfact> 0.77659774E+05</totfact>
</mgrwt>
</event>
<event>
 4    1  0.1893769E-002  0.7397137E+02  0.7818608E-02  0.1347086E+00
          1   -1    0    0    0  501  0.00000000000E+00  0.00000000000E+00  0.10144266933E+03  0.10144266946E+03  0.50400000000E-02 0. -1.
         -1   -1    0    0  501    0 -0.00000000000E+00 -0.00000000000E+00 -0.13484866636E+02  0.13484867577E+02  0.50400000000E-02 0. -1.
          2    1    1    2    0  502  0.61980023516E+01  0.28478182119E+02  0.86001338545E+01  0.30387240723E+02  0.25500000000E-02 0.  1.
         -2    1    1    2  502    0 -0.61980023516E+01 -0.28478182119E+02  0.79357668840E+02  0.84540296310E+02  0.25500000000E-02 0.  1.
<mgrwt>
<rscale>  0 0.73971371E+02</rscale>
<asrwt>0</asrwt>
<pdfrwt beam="1">  1        1 0.15606564E-01 0.73971371E+02</pdfrwt>
<pdfrwt beam="2">  1       -1 0.20745950E-02 0.73971371E+02</pdfrwt>
<totfact> 0.18366655E+05</totfact>
</mgrwt>
</event>
<event>
 4    1  0.1893769E-002  0.4712030E+02  0.7818608E-02  0.1461523E+00
          1   -1    0    0    0  501  0.00000000000E+00  0.00000000000E+00  0.17619127339E+04  0.17619127339E+04  0.50400000000E-02 0.  1.
         -1   -1    0    0  501    0 -0.00000000000E+00 -0.00000000000E+00 -0.31502416496E+00  0.31506447929E+00  0.50400000000E-02 0.  1.
          2    1    1    2    0  502 -0.17701368534E+02  0.15186899818E+02  0.10053994477E+04  0.10056699408E+04  0.25500000000E-02 0. -1.
         -2    1    1    2  502    0  0.17701368534E+02 -0.15186899818E+02  0.75619826204E+03  0.75655785760E+03  0.25500000000E-02 0. -1.
<mgrwt>
<rscale>  0 0.47120298E+02</rscale>
<asrwt>0</asrwt>
<pdfrwt beam="1">  1        1 0.27106995E+00 0.47120298E+02</pdfrwt>
<pdfrwt beam="2">  1       -1 0.48467204E-04 0.47120298E+02</pdfrwt>
<totfact> 0.51446661E+05</totfact>
</mgrwt>
</event>
<event>
 4    1  0.1893769E-002  0.4738205E+02  0.7818608E-02  0.1459996E+00
         -1   -1    0    0  501    0 -0.00000000000E+00  0.00000000000E+00  0.22466903108E+01  0.22466959639E+01  0.50400000000E-02 0. -1.
          1   -1    0    0    0  501  0.00000000000E+00 -0.00000000000E+00 -0.24981808209E+03  0.24981808214E+03  0.50400000000E-02 0. -1.
          2    1    1    2    0  502 -0.18517205478E+02 -0.11362130144E+02 -0.73519658017E+02  0.76662409443E+02  0.25500000000E-02 0. -1.
         -2    1    1    2  502    0  0.18517205478E+02  0.11362130144E+02 -0.17405173376E+03  0.17540236866E+03  0.25500000000E-02 0. -1.
<mgrwt>
<rscale>  0 0.47382047E+02</rscale>
<asrwt>0</asrwt>
<pdfrwt beam="2">  1        1 0.38433530E-01 0.47382047E+02</pdfrwt>
<pdfrwt beam="1">  1       -1 0.34564530E-03 0.47382047E+02</pdfrwt>
<totfact> 0.66811456E+05</totfact>
</mgrwt>
</event>
<event>
 4    1  0.1893769E-002  0.6332855E+02  0.7818608E-02  0.1384371E+00
         -1   -1    0    0  501    0 -0.00000000000E+00  0.00000000000E+00  0.24597315348E+03  0.24597315353E+03  0.50400000000E-02 0.  1.
          1   -1    0    0    0  501  0.00000000000E+00 -0.00000000000E+00 -0.40761597436E+01  0.40761628594E+01  0.50400000000E-02 0.  1.
          2    1    1    2    0  502  0.17060558260E+02  0.15307173364E+02  0.34690185952E+02  0.41578614845E+02  0.25500000000E-02 0. -1.
         -2    1    1    2  502    0 -0.17060558260E+02 -0.15307173364E+02  0.20720680779E+03  0.20847070155E+03  0.25500000000E-02 0. -1.
<mgrwt>
<rscale>  0 0.63328548E+02</rscale>
<asrwt>0</asrwt>
<pdfrwt beam="2">  1        1 0.62710155E-03 0.63328548E+02</pdfrwt>
<pdfrwt beam="1">  1       -1 0.37842036E-01 0.63328548E+02</pdfrwt>
<totfact> 0.16648639E+05</totfact>
</mgrwt>
</event>
<event>
 4    1  0.1893769E-002  0.6719276E+02  0.7818608E-02  0.1369908E+00
         -1   -1    0    0  501    0 -0.00000000000E+00  0.00000000000E+00  0.34687972278E+02  0.34687972644E+02  0.50400000000E-02 0. -1.
          1   -1    0    0    0  501  0.00000000000E+00 -0.00000000000E+00 -0.32539142776E+02  0.32539143166E+02  0.50400000000E-02 0. -1.
          2    1    1    2    0  502  0.99545639589E+01  0.28595022727E+02  0.15640299478E+02  0.34079137939E+02  0.25500000000E-02 0.  1.
         -2    1    1    2  502    0 -0.99545639589E+01 -0.28595022727E+02 -0.13491469975E+02  0.33147977872E+02  0.25500000000E-02 0.  1.
<mgrwt>
<rscale>  0 0.67192765E+02</rscale>
<asrwt>0</asrwt>
<pdfrwt beam="2">  1        1 0.50060220E-02 0.67192765E+02</pdfrwt>
<pdfrwt beam="1">  1       -1 0.53366112E-02 0.67192765E+02</pdfrwt>
<totfact> 0.20508111E+05</totfact>
</mgrwt>
</event>
<event>
 4    1  0.1893769E-002  0.6525438E+02  0.7818608E-02  0.1377017E+00
         -1   -1    0    0  501    0 -0.00000000000E+00  0.00000000000E+00  0.36353032800E+01  0.36353067737E+01  0.50400000000E-02 0.  1.
          1   -1    0    0    0  501  0.00000000000E+00 -0.00000000000E+00 -0.29283195897E+03  0.29283195901E+03  0.50400000000E-02 0.  1.
          2    1    1    2    0  502 -0.79147495843E+01  0.19887408887E+02 -0.25647510597E+03  0.25736672723E+03  0.25500000000E-02 0. -1.
         -2    1    1    2  502    0  0.79147495843E+01 -0.19887408887E+02 -0.32721549712E+02  0.39100538555E+02  0.25500000000E-02 0. -1.
<mgrwt>
<rscale>  0 0.65254379E+02</rscale>
<asrwt>0</asrwt>
<pdfrwt beam="2">  1        1 0.45051052E-01 0.65254379E+02</pdfrwt>
<pdfrwt beam="1">  1       -1 0.55927793E-03 0.65254379E+02</pdfrwt>
<totfact> 0.30617620E+05</totfact>
</mgrwt>
</event>
<event>
 4    1  0.1893769E-002  0.5168452E+02  0.7818608E-02  0.1436462E+00
         -1   -1    0    0  501    0 -0.00000000000E+00  0.00000000000E+00  0.65460273477E+02  0.65460273671E+02  0.50400000000E-02 0. -1.
          1   -1    0    0    0  501  0.00000000000E+00 -0.00000000000E+00 -0.10201948860E+02  0.10201950105E+02  0.50400000000E-02 0. -1.
          2    1    1    2    0  502 -0.22399400254E+02 -0.72413081848E+01  0.12022553172E+02  0.26433150914E+02  0.25500000000E-02 0.  1.
         -2    1    1    2  502    0  0.22399400254E+02  0.72413081848E+01  0.43235771444E+02  0.49229072862E+02  0.25500000000E-02 0.  1.
<mgrwt>
<rscale>  0 0.51684521E+02</rscale>
<asrwt>0</asrwt>
<pdfrwt beam="2">  1        1 0.15695307E-02 0.51684521E+02</pdfrwt>
<pdfrwt beam="1">  1       -1 0.10070812E-01 0.51684521E+02</pdfrwt>
<totfact> 0.36478285E+05</totfact>
</mgrwt>
</event>
<event>
 4    1  0.1893769E-002  0.4649996E+02  0.7818608E-02  0.1465189E+00
          1   -1    0    0    0  501  0.00000000000E+00  0.00000000000E+00  0.11071287232E+01  0.11071401950E+01  0.50400000000E-02 0. -1.
         -1   -1    0    0  501    0 -0.00000000000E+00 -0.00000000000E+00 -0.48825285118E+03  0.48825285121E+03  0.50400000000E-02 0. -1.
          2    1    1    2    0  502 -0.14038348158E+02 -0.18513772769E+02 -0.25254326592E+03  0.25360981087E+03  0.25500000000E-02 0.  1.
         -2    1    1    2  502    0  0.14038348158E+02  0.18513772769E+02 -0.23460245654E+03  0.23575018053E+03  0.25500000000E-02 0.  1.
<mgrwt>
<rscale>  0 0.46499960E+02</rscale>
<asrwt>0</asrwt>
<pdfrwt beam="1">  1        1 0.17032877E-03 0.46499960E+02</pdfrwt>
<pdfrwt beam="2">  1       -1 0.75115652E-01 0.46499960E+02</pdfrwt>
<totfact> 0.26471504E+05</totfact>
</mgrwt>
</event>
<event>
 4    1  0.1893769E-002  0.1213332E+03  0.7818608E-02  0.1240914E+00
         -1   -1    0    0  501    0 -0.00000000000E+00  0.00000000000E+00  0.24569032698E+02  0.24569033215E+02  0.50400000000E-02 0.  1.
          1   -1    0    0    0  501  0.00000000000E+00 -0.00000000000E+00 -0.14979986194E+03  0.14979986203E+03  0.50400000000E-02 0.  1.
          2    1    1    2    0  502 -0.18094764466E+02 -0.37068637528E+02  0.13146092613E+01  0.41270238590E+02  0.25500000000E-02 0. -1.
         -2    1    1    2  502    0  0.18094764466E+02  0.37068637528E+02 -0.12654543851E+03  0.13309865665E+03  0.25500000000E-02 0. -1.
<mgrwt>
<rscale>  0 0.12133322E+03</rscale>
<asrwt>0</asrwt>
<pdfrwt beam="2">  1        1 0.23046132E-01 0.12133322E+03</pdfrwt>
<pdfrwt beam="1">  1       -1 0.37798513E-02 0.12133322E+03</pdfrwt>
<totfact> 0.51142649E+04</totfact>
</mgrwt>
</event>
<event>
 4    1  0.1893769E-002  0.4865447E+02  0.7818608E-02  0.1452737E+00
         -1   -1    0    0  501    0 -0.00000000000E+00  0.00000000000E+00  0.41147282579E+03  0.41147282582E+03  0.50400000000E-02 0. -1.
          1   -1    0    0    0  501  0.00000000000E+00 -0.00000000000E+00 -0.14382783593E+01  0.14382871898E+01  0.50400000000E-02 0. -1.
          2    1    1    2    0  502  0.13587110981E+02 -0.18719304297E+02  0.26897289983E+03  0.26996563260E+03  0.25500000000E-02 0. -1.
         -2    1    1    2  502    0 -0.13587110981E+02  0.18719304297E+02  0.14106164760E+03  0.14294548041E+03  0.25500000000E-02 0. -1.
<mgrwt>
<rscale>  0 0.48654467E+02</rscale>
<asrwt>0</asrwt>
<pdfrwt beam="2">  1        1 0.22127438E-03 0.48654467E+02</pdfrwt>
<pdfrwt beam="1">  1       -1 0.63303481E-01 0.48654467E+02</pdfrwt>
<totfact> 0.26045580E+05</totfact>
</mgrwt>
</event>
<event>
 4    1  0.1893769E-002  0.6508867E+02  0.7818608E-02  0.1377638E+00
         -1   -1    0    0  501    0 -0.00000000000E+00  0.00000000000E+00  0.14532475284E+01  0.14532562680E+01  0.50400000000E-02 0.  1.
          1   -1    0    0    0  501  0.00000000000E+00 -0.00000000000E+00 -0.72880261253E+03  0.72880261254E+03  0.50400000000E-02 0.  1.
          2    1    1    2    0  502 -0.28492860115E+02  0.15537023096E+02 -0.33644220906E+03  0.33800384940E+03  0.25500000000E-02 0. -1.
         -2    1    1    2  502    0  0.28492860115E+02 -0.15537023096E+02 -0.39090715594E+03  0.39225201942E+03  0.25500000000E-02 0. -1.
<mgrwt>
<rscale>  0 0.65088672E+02</rscale>
<asrwt>0</asrwt>
<pdfrwt beam="2">  1        1 0.11212319E+00 0.65088672E+02</pdfrwt>
<pdfrwt beam="1">  1       -1 0.22357780E-03 0.65088672E+02</pdfrwt>
<totfact> 0.34127346E+05</totfact>
</mgrwt>
</event>
<event>
 4    1  0.1893769E-002  0.1953111E+03  0.7818608E-02  0.1153756E+00
         -1   -1    0    0  501    0 -0.00000000000E+00  0.00000000000E+00  0.13664250090E+03  0.13664250100E+03  0.50400000000E-02 0.  1.
          1   -1    0    0    0  501  0.00000000000E+00 -0.00000000000E+00 -0.69792380885E+02  0.69792381067E+02  0.50400000000E-02 0.  1.
          2    1    1    2    0  502  0.78172774163E+02  0.35832859454E+02  0.82338510925E+02  0.11905715781E+03  0.25500000000E-02 0. -1.
         -2    1    1    2  502    0 -0.78172774163E+02 -0.35832859454E+02 -0.15488390908E+02  0.87377724257E+02  0.25500000000E-02 0. -1.
<mgrwt>
<rscale>  0 0.19531109E+03</rscale>
<asrwt>0</asrwt>
<pdfrwt beam="2">  1        1 0.10737290E-01 0.19531109E+03</pdfrwt>
<pdfrwt beam="1">  1       -1 0.21021923E-01 0.19531109E+03</pdfrwt>
<totfact> 0.10462670E+04</totfact>
</mgrwt>
</event>
<event>
 4    1  0.1893769E-002  0.4148701E+02  0.7818608E-02  0.1497545E+00
         -1   -1    0    0  501    0 -0.00000000000E+00  0.00000000000E+00  0.57362878847E+01  0.57362900988E+01  0.50400000000E-02 0. -1.
          1   -1    0    0    0  501  0.00000000000E+00 -0.00000000000E+00 -0.75012432519E+02  0.75012432689E+02  0.50400000000E-02 0. -1.
          2    1    1    2    0  502 -0.13200586184E+02  0.15935788373E+02 -0.31825481569E+02  0.37961376559E+02  0.25500000000E-02 0.  1.
         -2    1    1    2  502    0  0.13200586184E+02 -0.15935788373E+02 -0.37450663066E+02  0.42787346228E+02  0.25500000000E-02 0.  1.
<mgrwt>
<rscale>  0 0.41487010E+02</rscale>
<asrwt>0</asrwt>
<pdfrwt beam="2">  1        1 0.11540374E-01 0.41487010E+02</pdfrwt>
<pdfrwt beam="1">  1       -1 0.88250607E-03 0.41487010E+02</pdfrwt>
<totfact> 0.77724370E+05</totfact>
</mgrwt>
</event>
<event>
 4    1  0.1893769E-002  0.5447115E+02  0.7818608E-02  0.1422617E+00
          1   -1    0    0    0  501  0.00000000000E+00  0.00000000000E+00  0.12518209546E+02  0.12518210560E+02  0.50400000000E-02 0.  1.
         -1   -1    0    0  501    0 -0.00000000000E+00 -0.00000000000E+00 -0.59255788323E+02  0.59255788538E+02  0.50400000000E-02 0.  1.
          2    1    1    2    0  502  0.12951480801E+02 -0.15469418255E+02 -0.47476150858E+02  0.51585159327E+02  0.25500000000E-02 0. -1.
         -2    1    1    2  502    0 -0.12951480801E+02  0.15469418255E+02  0.73857207973E+00  0.20188839771E+02  0.25500000000E-02 0. -1.
<mgrwt>
<rscale>  0 0.54471145E+02</rscale>
<asrwt>0</asrwt>
<pdfrwt beam="1">  1        1 0.19258785E-02 0.54471145E+02</pdfrwt>
<pdfrwt beam="2">  1       -1 0.91162751E-02 0.54471145E+02</pdfrwt>
<totfact> 0.32431203E+05</totfact>
</mgrwt>
</event>
<event>
 4    1  0.1893769E-002  0.5689980E+02  0.7818608E-02  0.1411322E+00
          1   -1    0    0    0  501  0.00000000000E+00  0.00000000000E+00  0.11331444318E+01  0.11331556402E+01  0.50400000000E-02 0.  1.
         -1   -1    0    0  501    0 -0.00000000000E+00 -0.00000000000E+00 -0.71428922857E+03  0.71428922859E+03  0.50400000000E-02 0.  1.
          2    1    1    2    0  502 -0.13091116425E+02 -0.23883775100E+02 -0.25321235975E+03  0.25467294944E+03  0.25500000000E-02 0. -1.
         -2    1    1    2  502    0  0.13091116425E+02  0.23883775100E+02 -0.45994372439E+03  0.46074943479E+03  0.25500000000E-02 0. -1.
<mgrwt>
<rscale>  0 0.56899802E+02</rscale>
<asrwt>0</asrwt>
<pdfrwt beam="1">  1        1 0.17433135E-03 0.56899802E+02</pdfrwt>
<pdfrwt beam="2">  1       -1 0.10989029E+00 0.56899802E+02</pdfrwt>
<totfact> 0.12174396E+05</totfact>
</mgrwt>
</event>
<event>
 4    1  0.1893769E-002  0.5026362E+02  0.7818608E-02  0.1443925E+00
         -1   -1    0    0  501    0 -0.00000000000E+00  0.00000000000E+00  0.48640789549E+02  0.48640789810E+02  0.50400000000E-02 0. -1.
          1   -1    0    0    0  501  0.00000000000E+00 -0.00000000000E+00 -0.12985147392E+02  0.12985148370E+02  0.50400000000E-02 0. -1.
          2    1    1    2    0  502  0.21191670316E+02  0.27983722847E+01  0.16230126567E+01  0.21437162938E+02  0.25500000000E-02 0.  1.
         -2    1    1    2  502    0 -0.21191670316E+02 -0.27983722847E+01  0.34032629500E+02  0.40188775242E+02  0.25500000000E-02 0.  1.
<mgrwt>
<rscale>  0 0.50263619E+02</rscale>
<asrwt>0</asrwt>
<pdfrwt beam="2">  1        1 0.19977151E-02 0.50263619E+02</pdfrwt>
<pdfrwt beam="1">  1       -1 0.74831986E-02 0.50263619E+02</pdfrwt>
<totfact> 0.40467664E+05</totfact>
</mgrwt>
</event>
<event>
 4    1  0.1893769E-002  0.4112300E+02  0.7818608E-02  0.1500106E+00
         -1   -1    0    0  501    0 -0.00000000000E+00  0.00000000000E+00  0.40642133062E+03  0.40642133066E+03  0.50400000000E-02 0.  1.
          1   -1    0    0    0  501  0.00000000000E+00 -0.00000000000E+00 -0.10402328186E+01  0.10402450281E+01  0.50400000000E-02 0.  1.
          2    1    1    2    0  502 -0.15799835022E+02 -0.12678210982E+02  0.16779472011E+03  0.16901313536E+03  0.25500000000E-02 0.  1.
         -2    1    1    2  502    0  0.15799835022E+02  0.12678210982E+02  0.23758637769E+03  0.23844844032E+03  0.25500000000E-02 0.  1.
<mgrwt>
<rscale>  0 0.41123001E+02</rscale>
<asrwt>0</asrwt>
<pdfrwt beam="2">  1        1 0.16003660E-03 0.41123001E+02</pdfrwt>
<pdfrwt beam="1">  1       -1 0.62526421E-01 0.41123001E+02</pdfrwt>
<totfact> 0.39545737E+05</totfact>
</mgrwt>
</event>
<event>
 4    1  0.1893769E-002  0.6296652E+02  0.7818608E-02  0.1385788E+00
         -1   -1    0    0  501    0 -0.00000000000E+00  0.00000000000E+00  0.77449927483E+01  0.77449943882E+01  0.50400000000E-02 0.  1.
          1   -1    0    0    0  501  0.00000000000E+00 -0.00000000000E+00 -0.12797889411E+03  0.12797889421E+03  0.50400000000E-02 0.  1.
          2    1    1    2    0  502 -0.17865828221E+02 -0.25224359695E+02 -0.73003044830E+02  0.79277365628E+02  0.25500000000E-02 0. -1.
         -2    1    1    2  502    0  0.17865828221E+02  0.25224359695E+02 -0.47230856530E+02  0.56446522968E+02  0.25500000000E-02 0. -1.
<mgrwt>
<rscale>  0 0.62966522E+02</rscale>
<asrwt>0</asrwt>
<pdfrwt beam="2">  1        1 0.19689059E-01 0.62966522E+02</pdfrwt>
<pdfrwt beam="1">  1       -1 0.11915376E-02 0.62966522E+02</pdfrwt>
<totfact> 0.29029571E+05</totfact>
</mgrwt>
</event>
<event>
 4    1  0.1893769E-002  0.6847408E+02  0.7818608E-02  0.1365360E+00
         -1   -1    0    0  501    0 -0.00000000000E+00  0.00000000000E+00  0.16437754112E+01  0.16437831378E+01  0.50400000000E-02 0. -1.
          1   -1    0    0    0  501  0.00000000000E+00 -0.00000000000E+00 -0.71309742825E+03  0.71309742827E+03  0.50400000000E-02 0. -1.
          2    1    1    2    0  502  0.23890918078E+02 -0.13223976035E+02 -0.57130015336E+03  0.57195237105E+03  0.25500000000E-02 0. -1.
         -2    1    1    2  502    0 -0.23890918078E+02  0.13223976035E+02 -0.14015349948E+03  0.14278884036E+03  0.25500000000E-02 0. -1.
<mgrwt>
<rscale>  0 0.68474076E+02</rscale>
<asrwt>0</asrwt>
<pdfrwt beam="2">  1        1 0.10970705E+00 0.68474076E+02</pdfrwt>
<pdfrwt beam="1">  1       -1 0.25288969E-03 0.68474076E+02</pdfrwt>
<totfact> 0.29987390E+05</totfact>
</mgrwt>
</event>
<event>
 4    1  0.1893769E-002  0.6558578E+02  0.7818608E-02  0.1375781E+00
         -1   -1    0    0  501    0 -0.00000000000E+00  0.00000000000E+00  0.23010321664E+02  0.23010322216E+02  0.50400000000E-02 0.  1.
          1   -1    0    0    0  501  0.00000000000E+00 -0.00000000000E+00 -0.46734396429E+02  0.46734396701E+02  0.50400000000E-02 0.  1.
          2    1    1    2    0  502 -0.20972611507E+02  0.14622028041E+02 -0.33700066577E+02  0.42300693035E+02  0.25500000000E-02 0. -1.
         -2    1    1    2  502    0  0.20972611507E+02 -0.14622028041E+02  0.99759918125E+01  0.27444025882E+02  0.25500000000E-02 0. -1.
<mgrwt>
<rscale>  0 0.65585777E+02</rscale>
<asrwt>0</asrwt>
<pdfrwt beam="2">  1        1 0.71899072E-02 0.65585777E+02</pdfrwt>
<pdfrwt beam="1">  1       -1 0.35400496E-02 0.65585777E+02</pdfrwt>
<totfact> 0.22818257E+05</totfact>
</mgrwt>
</event>
<event>
 4    1  0.1893769E-002  0.7920724E+02  0.7818608E-02  0.1331316E+00
          1   -1    0    0    0  501  0.00000000000E+00  0.00000000000E+00  0.13391083027E+04  0.13391083027E+04  0.50400000000E-02 0. -1.
         -1   -1    0    0  501    0 -0.00000000000E+00 -0.00000000000E+00 -0.11712564600E+01  0.11712673037E+01  0.50400000000E-02 0. -1.
          2    1    1    2    0  502 -0.63211415874E+01  0.38532291551E+02  0.55704265775E+03  0.55840954226E+03  0.25500000000E-02 0. -1.
         -2    1    1    2  502    0  0.63211415874E+01 -0.38532291551E+02  0.78089438852E+03  0.78187002778E+03  0.25500000000E-02 0. -1.
<mgrwt>
<rscale>  0 0.79207235E+02</rscale>
<asrwt>0</asrwt>
<pdfrwt beam="1">  1        1 0.20601629E+00 0.79207235E+02</pdfrwt>
<pdfrwt beam="2">  1       -1 0.18019446E-03 0.79207235E+02</pdfrwt>
<totfact> 0.17357532E+05</totfact>
</mgrwt>
</event>
<event>
 4    1  0.1893769E-002  0.7597481E+02  0.7818608E-02  0.1340879E+00
         -1   -1    0    0  501    0 -0.00000000000E+00  0.00000000000E+00  0.24595240307E+01  0.24595291946E+01  0.50400000000E-02 0.  1.
          1   -1    0    0    0  501  0.00000000000E+00 -0.00000000000E+00 -0.58671574432E+03  0.58671574434E+03  0.50400000000E-02 0.  1.
          2    1    1    2    0  502  0.28749434406E+02  0.24791668230E+02 -0.28147763748E+03  0.28402608542E+03  0.25500000000E-02 0. -1.
         -2    1    1    2  502    0 -0.28749434406E+02 -0.24791668230E+02 -0.30277858281E+03  0.30514918811E+03  0.25500000000E-02 0. -1.
<mgrwt>
<rscale>  0 0.75974812E+02</rscale>
<asrwt>0</asrwt>
<pdfrwt beam="2">  1        1 0.90263850E-01 0.75974812E+02</pdfrwt>
<pdfrwt beam="1">  1       -1 0.37838918E-03 0.75974812E+02</pdfrwt>
<totfact> 0.22813635E+05</totfact>
</mgrwt>
</event>
<event>
 4    1  0.1893769E-002  0.4917507E+02  0.7818608E-02  0.1449842E+00
         -1   -1    0    0  501    0 -0.00000000000E+00  0.00000000000E+00  0.14079078237E+01  0.14079168447E+01  0.50400000000E-02 0.  1.
          1   -1    0    0    0  501  0.00000000000E+00 -0.00000000000E+00 -0.42939237552E+03  0.42939237555E+03  0.50400000000E-02 0.  1.
          2    1    1    2    0  502 -0.23118173788E+02 -0.64579310237E+01 -0.26067203282E+03  0.26177483365E+03  0.25500000000E-02 0.  1.
         -2    1    1    2  502    0  0.23118173788E+02  0.64579310237E+01 -0.16731243488E+03  0.16902545875E+03  0.25500000000E-02 0.  1.
<mgrwt>
<rscale>  0 0.49175068E+02</rscale>
<asrwt>0</asrwt>
<pdfrwt beam="2">  1        1 0.66060262E-01 0.49175068E+02</pdfrwt>
<pdfrwt beam="1">  1       -1 0.21660224E-03 0.49175068E+02</pdfrwt>
<totfact> 0.66632361E+05</totfact>
</mgrwt>
</event>
<event>
 4    1  0.1893769E-002  0.4109039E+02  0.7818608E-02  0.1500337E+00
         -1   -1    0    0  501    0 -0.00000000000E+00  0.00000000000E+00  0.37472250269E+01  0.37472284163E+01  0.50400000000E-02 0. -1.
          1   -1    0    0    0  501  0.00000000000E+00 -0.00000000000E+00 -0.11264465101E+03  0.11264465112E+03  0.50400000000E-02 0. -1.
          2    1    1    2    0  502 -0.18260114256E+02 -0.90030098043E+01 -0.46630021304E+02  0.50880692325E+02  0.25500000000E-02 0. -1.
         -2    1    1    2  502    0  0.18260114256E+02  0.90030098043E+01 -0.62267404680E+02  0.65511187214E+02  0.25500000000E-02 0. -1.
<mgrwt>
<rscale>  0 0.41090391E+02</rscale>
<asrwt>0</asrwt>
<pdfrwt beam="2">  1        1 0.17329944E-01 0.41090391E+02</pdfrwt>
<pdfrwt beam="1">  1       -1 0.57649651E-03 0.41090391E+02</pdfrwt>
<totfact> 0.83657963E+05</totfact>
</mgrwt>
</event>
<event>
 4    1  0.1893769E-002  0.6584345E+02  0.7818608E-02  0.1374827E+00
          1   -1    0    0    0  501  0.00000000000E+00  0.00000000000E+00  0.13234086169E+03  0.13234086179E+03  0.50400000000E-02 0.  1.
         -1   -1    0    0  501    0 -0.00000000000E+00 -0.00000000000E+00 -0.81897586410E+01  0.81897601918E+01  0.50400000000E-02 0.  1.
          2    1    1    2    0  502 -0.23458114671E+02  0.15408903303E+02  0.98803277087E+02  0.10271224374E+03  0.25500000000E-02 0.  1.
         -2    1    1    2  502    0  0.23458114671E+02 -0.15408903303E+02  0.25347825966E+02  0.37818378239E+02  0.25500000000E-02 0.  1.
<mgrwt>
<rscale>  0 0.65843446E+02</rscale>
<asrwt>0</asrwt>
<pdfrwt beam="1">  1        1 0.20360132E-01 0.65843446E+02</pdfrwt>
<pdfrwt beam="2">  1       -1 0.12599631E-02 0.65843446E+02</pdfrwt>
<totfact> 0.25989315E+05</totfact>
</mgrwt>
</event>
<event>
 4    1  0.1893769E-002  0.6362504E+02  0.7818608E-02  0.1383219E+00
         -1   -1    0    0  501    0 -0.00000000000E+00  0.00000000000E+00  0.52025267796E+01  0.52025292209E+01  0.50400000000E-02 0.  1.
          1   -1    0    0    0  501  0.00000000000E+00 -0.00000000000E+00 -0.19452783562E+03  0.19452783568E+03  0.50400000000E-02 0.  1.
          2    1    1    2    0  502 -0.10453262750E+02 -0.29949480226E+02 -0.87106129511E+02  0.92702318595E+02  0.25500000000E-02 0. -1.
         -2    1    1    2  502    0  0.10453262750E+02  0.29949480226E+02 -0.10221917933E+03  0.10702804631E+03  0.25500000000E-02 0. -1.
<mgrwt>
<rscale>  0 0.63625043E+02</rscale>
<asrwt>0</asrwt>
<pdfrwt beam="2">  1        1 0.29927354E-01 0.63625043E+02</pdfrwt>
<pdfrwt beam="1">  1       -1 0.80038908E-03 0.63625043E+02</pdfrwt>
<totfact> 0.30328540E+05</totfact>
</mgrwt>
</event>
<event>
 4    1  0.1893769E-002  0.7492107E+02  0.7818608E-02  0.1344116E+00
         -1   -1    0    0  501    0 -0.00000000000E+00  0.00000000000E+00  0.13424950888E+01  0.13425045494E+01  0.50400000000E-02 0.  1.
          1   -1    0    0    0  501  0.00000000000E+00 -0.00000000000E+00 -0.10452826234E+04  0.10452826234E+04  0.50400000000E-02 0.  1.
          2    1    1    2    0  502 -0.29479123434E+02 -0.93529469456E+01 -0.22668496977E+03  0.22878499046E+03  0.25500000000E-02 0.  1.
         -2    1    1    2  502    0  0.29479123434E+02  0.93529469456E+01 -0.81725515854E+03  0.81784013750E+03  0.25500000000E-02 0.  1.
<mgrwt>
<rscale>  0 0.74921072E+02</rscale>
<asrwt>0</asrwt>
<pdfrwt beam="2">  1        1 0.16081206E+00 0.74921072E+02</pdfrwt>
<pdfrwt beam="1">  1       -1 0.20653927E-03 0.74921072E+02</pdfrwt>
<totfact> 0.22456882E+05</totfact>
</mgrwt>
</event>
<event>
 4    1  0.1893769E-002  0.4451422E+02  0.7818608E-02  0.1477397E+00
          1   -1    0    0    0  501  0.00000000000E+00  0.00000000000E+00  0.19133537296E+03  0.19133537303E+03  0.50400000000E-02 0. -1.
         -1   -1    0    0  501    0 -0.00000000000E+00 -0.00000000000E+00 -0.25890588263E+01  0.25890637319E+01  0.50400000000E-02 0. -1.
          2    1    1    2    0  502 -0.20960841767E+02  0.60310000999E+01  0.11368420114E+03  0.11575762370E+03  0.25500000000E-02 0.  1.
         -2    1    1    2  502    0  0.20960841767E+02 -0.60310000999E+01  0.75062112994E+02  0.78166813056E+02  0.25500000000E-02 0.  1.
<mgrwt>
<rscale>  0 0.44514223E+02</rscale>
<asrwt>0</asrwt>
<pdfrwt beam="1">  1        1 0.29436213E-01 0.44514223E+02</pdfrwt>
<pdfrwt beam="2">  1       -1 0.39831711E-03 0.44514223E+02</pdfrwt>
<totfact> 0.74475469E+05</totfact>
</mgrwt>
</event>
<event>
 4    1  0.1893769E-002  0.1218613E+03  0.7818608E-02  0.1240058E+00
         -1   -1    0    0  501    0 -0.00000000000E+00  0.00000000000E+00  0.10403296672E+03  0.10403296684E+03  0.50400000000E-02 0.  1.
          1   -1    0    0    0  501  0.00000000000E+00 -0.00000000000E+00 -0.35686205734E+02  0.35686206089E+02  0.50400000000E-02 0.  1.
          2    1    1    2    0  502  0.40348967526E+02 -0.17298578182E+02 -0.14270764666E+02  0.46162048462E+02  0.25500000000E-02 0.  1.
         -2    1    1    2  502    0 -0.40348967526E+02  0.17298578182E+02  0.82617525649E+02  0.93557124466E+02  0.25500000000E-02 0.  1.
<mgrwt>
<rscale>  0 0.12186126E+03</rscale>
<asrwt>0</asrwt>
<pdfrwt beam="2">  1        1 0.54901856E-02 0.12186126E+03</pdfrwt>
<pdfrwt beam="1">  1       -1 0.16005072E-01 0.12186126E+03</pdfrwt>
<totfact> 0.38129746E+04</totfact>
</mgrwt>
</event>
<event>
 4    1  0.1893769E-002  0.5072443E+02  0.7818608E-02  0.1441473E+00
         -1   -1    0    0  501    0 -0.00000000000E+00  0.00000000000E+00  0.98783843038E+02  0.98783843166E+02  0.50400000000E-02 0. -1.
          1   -1    0    0    0  501  0.00000000000E+00 -0.00000000000E+00 -0.65116098615E+01  0.65116118120E+01  0.50400000000E-02 0. -1.
          2    1    1    2    0  502 -0.11928466944E+02 -0.21802333463E+02  0.56641531001E+02  0.61853804318E+02  0.25500000000E-02 0.  1.
         -2    1    1    2  502    0  0.11928466944E+02  0.21802333463E+02  0.35630702175E+02  0.43441650660E+02  0.25500000000E-02 0.  1.
<mgrwt>
<rscale>  0 0.50724430E+02</rscale>
<asrwt>0</asrwt>
<pdfrwt beam="2">  1        1 0.10017863E-02 0.50724430E+02</pdfrwt>
<pdfrwt beam="1">  1       -1 0.15197514E-01 0.50724430E+02</pdfrwt>
<totfact> 0.35992821E+05</totfact>
</mgrwt>
</event>
<event>
 4    1  0.1893769E-002  0.1318382E+03  0.7818608E-02  0.1224753E+00
          1   -1    0    0    0  501  0.00000000000E+00  0.00000000000E+00  0.81198939616E+02  0.81198939773E+02  0.50400000000E-02 0. -1.
         -1   -1    0    0  501    0 -0.00000000000E+00 -0.00000000000E+00 -0.53514590458E+02  0.53514590696E+02  0.50400000000E-02 0. -1.
          2    1    1    2    0  502  0.90826747220E+01 -0.48497034792E+02  0.58509051153E+02  0.76536046651E+02  0.25500000000E-02 0. -1.
         -2    1    1    2  502    0 -0.90826747220E+01  0.48497034792E+02 -0.30824701995E+02  0.58177483817E+02  0.25500000000E-02 0. -1.
<mgrwt>
<rscale>  0 0.13183820E+03</rscale>
<asrwt>0</asrwt>
<pdfrwt beam="1">  1        1 0.12492145E-01 0.13183820E+03</pdfrwt>
<pdfrwt beam="2">  1       -1 0.82330139E-02 0.13183820E+03</pdfrwt>
<totfact> 0.35689509E+04</totfact>
</mgrwt>
</event>
<event>
 4    1  0.1893769E-002  0.4594102E+02  0.7818608E-02  0.1468551E+00
         -1   -1    0    0  501    0 -0.00000000000E+00  0.00000000000E+00  0.13269599387E+03  0.13269599397E+03  0.50400000000E-02 0. -1.
          1   -1    0    0    0  501  0.00000000000E+00 -0.00000000000E+00 -0.39763372792E+01  0.39763404733E+01  0.50400000000E-02 0. -1.
          2    1    1    2    0  502  0.15025823626E+02 -0.16815725930E+02  0.77361503869E+02  0.80581302431E+02  0.25500000000E-02 0. -1.
         -2    1    1    2  502    0 -0.15025823626E+02  0.16815725930E+02  0.51358152725E+02  0.56091032010E+02  0.25500000000E-02 0. -1.
<mgrwt>
<rscale>  0 0.45941017E+02</rscale>
<asrwt>0</asrwt>
<pdfrwt beam="2">  1        1 0.61174439E-03 0.45941017E+02</pdfrwt>
<pdfrwt beam="1">  1       -1 0.20414771E-01 0.45941017E+02</pdfrwt>
<totfact> 0.43539381E+05</totfact>
</mgrwt>
</event>
<event>
 4    1  0.1893769E-002  0.4514960E+02  0.7818608E-02  0.1473410E+00
         -1   -1    0    0  501    0 -0.00000000000E+00  0.00000000000E+00  0.58540147560E+00  0.58542317108E+00  0.50400000000E-02 0.  1.
          1   -1    0    0    0  501  0.00000000000E+00 -0.00000000000E+00 -0.87053448433E+03  0.87053448435E+03  0.50400000000E-02 0.  1.
          2    1    1    2    0  502  0.20946021729E+02 -0.22698799219E+01 -0.59140351598E+03  0.59177868068E+03  0.25500000000E-02 0. -1.
         -2    1    1    2  502    0 -0.20946021729E+02  0.22698799219E+01 -0.27854556687E+03  0.27934122684E+03  0.25500000000E-02 0. -1.
<mgrwt>
<rscale>  0 0.45149601E+02</rscale>
<asrwt>0</asrwt>
<pdfrwt beam="2">  1        1 0.13392735E+00 0.45149601E+02</pdfrwt>
<pdfrwt beam="1">  1       -1 0.90064132E-04 0.45149601E+02</pdfrwt>
<totfact> 0.83939735E+05</totfact>
</mgrwt>
</event>
<event>
 4    1  0.1893769E-002  0.4920895E+02  0.7818608E-02  0.1449656E+00
          1   -1    0    0    0  501  0.00000000000E+00  0.00000000000E+00  0.19422912204E+03  0.19422912210E+03  0.50400000000E-02 0.  1.
         -1   -1    0    0  501    0 -0.00000000000E+00 -0.00000000000E+00 -0.31168327802E+01  0.31168368551E+01  0.50400000000E-02 0.  1.
          2    1    1    2    0  502  0.33014892059E+01 -0.24324557190E+02  0.10226219737E+03  0.10516720463E+03  0.25500000000E-02 0.  1.
         -2    1    1    2  502    0 -0.33014892059E+01  0.24324557190E+02  0.88850091889E+02  0.92178754323E+02  0.25500000000E-02 0.  1.
<mgrwt>
<rscale>  0 0.49208946E+02</rscale>
<asrwt>0</asrwt>
<pdfrwt beam="1">  1        1 0.29881407E-01 0.49208946E+02</pdfrwt>
<pdfrwt beam="2">  1       -1 0.47951299E-03 0.49208946E+02</pdfrwt>
<totfact> 0.58199328E+05</totfact>
</mgrwt>
</event>
<event>
 4    1  0.1893769E-002  0.7895331E+02  0.7818608E-02  0.1332048E+00
         -1   -1    0    0  501    0 -0.00000000000E+00  0.00000000000E+00  0.12832464950E+01  0.12832563924E+01  0.50400000000E-02 0.  1.
          1   -1    0    0    0  501  0.00000000000E+00 -0.00000000000E+00 -0.12144199164E+04  0.12144199164E+04  0.50400000000E-02 0.  1.
          2    1    1    2    0  502  0.25558402814E+02  0.28902346231E+02 -0.73523727644E+03  0.73624889151E+03  0.25500000000E-02 0. -1.
         -2    1    1    2  502    0 -0.25558402814E+02 -0.28902346231E+02 -0.47789939346E+03  0.47945428129E+03  0.25500000000E-02 0. -1.
<mgrwt>
<rscale>  0 0.78953306E+02</rscale>
<asrwt>0</asrwt>
<pdfrwt beam="2">  1        1 0.18683292E+00 0.78953306E+02</pdfrwt>
<pdfrwt beam="1">  1       -1 0.19742427E-03 0.78953306E+02</pdfrwt>
<totfact> 0.18473846E+05</totfact>
</mgrwt>
</event>
<event>
 4    1  0.1893769E-002  0.4397948E+02  0.7818608E-02  0.1480815E+00
         -1   -1    0    0  501    0 -0.00000000000E+00  0.00000000000E+00  0.41829145160E+00  0.41832181402E+00  0.50400000000E-02 0. -1.
          1   -1    0    0    0  501  0.00000000000E+00 -0.00000000000E+00 -0.11559671411E+04  0.11559671411E+04  0.50400000000E-02 0. -1.
          2    1    1    2    0  502  0.15485551701E+02  0.13250866333E+02 -0.79485469166E+03  0.79511594665E+03  0.25500000000E-02 0.  1.
         -2    1    1    2  502    0 -0.15485551701E+02 -0.13250866333E+02 -0.36069415800E+03  0.36126951627E+03  0.25500000000E-02 0.  1.
<mgrwt>
<rscale>  0 0.43979483E+02</rscale>
<asrwt>0</asrwt>
<pdfrwt beam="2">  1        1 0.17783854E+00 0.43979483E+02</pdfrwt>
<pdfrwt beam="1">  1       -1 0.64355793E-04 0.43979483E+02</pdfrwt>
<totfact> 0.82962338E+05</totfact>
</mgrwt>
</event>
<event>
 4    1  0.1893769E-002  0.5277403E+02  0.7818608E-02  0.1430929E+00
         -1   -1    0    0  501    0 -0.00000000000E+00  0.00000000000E+00  0.30597438549E+00  0.30601589203E+00  0.50400000000E-02 0. -1.
          1   -1    0    0    0  501  0.00000000000E+00 -0.00000000000E+00 -0.22754433748E+04  0.22754433748E+04  0.50400000000E-02 0. -1.
          2    1    1    2    0  502 -0.16002818652E+01 -0.22914125410E+02 -0.57754579495E+03  0.57800239041E+03  0.25500000000E-02 0. -1.
         -2    1    1    2  502    0  0.16002818652E+01  0.22914125410E+02 -0.16975916054E+04  0.16977470003E+04  0.25500000000E-02 0. -1.
<mgrwt>
<rscale>  0 0.52774032E+02</rscale>
<asrwt>0</asrwt>
<pdfrwt beam="2">  1        1 0.35005467E+00 0.52774032E+02</pdfrwt>
<pdfrwt beam="1">  1       -1 0.47077998E-04 0.52774032E+02</pdfrwt>
<totfact> 0.26439935E+05</totfact>
</mgrwt>
</event>
<event>
 4    1  0.1893769E-002  0.4510807E+02  0.7818608E-02  0.1473668E+00
         -1   -1    0    0  501    0 -0.00000000000E+00  0.00000000000E+00  0.98568590736E+00  0.98569879251E+00  0.50400000000E-02 0.  1.
          1   -1    0    0    0  501  0.00000000000E+00 -0.00000000000E+00 -0.51606810016E+03  0.51606810018E+03  0.50400000000E-02 0.  1.
          2    1    1    2    0  502 -0.16914958054E+02  0.11573169897E+02 -0.14962847612E+03  0.15102561021E+03  0.25500000000E-02 0.  1.
         -2    1    1    2  502    0  0.16914958054E+02 -0.11573169897E+02 -0.36545393814E+03  0.36602818877E+03  0.25500000000E-02 0.  1.
<mgrwt>
<rscale>  0 0.45108065E+02</rscale>
<asrwt>0</asrwt>
<pdfrwt beam="2">  1        1 0.79394878E-01 0.45108065E+02</pdfrwt>
<pdfrwt beam="1">  1       -1 0.15164539E-03 0.45108065E+02</pdfrwt>
<totfact> 0.84283839E+05</totfact>
</mgrwt>
</event>
<event>
 4    1  0.1893769E-002  0.8647512E+02  0.7818608E-02  0.1311619E+00
         -1   -1    0    0  501    0 -0.00000000000E+00  0.00000000000E+00  0.62208737944E+03  0.62208737947E+03  0.50400000000E-02 0.  1.
          1   -1    0    0    0  501  0.00000000000E+00 -0.00000000000E+00 -0.30051809121E+01  0.30051851384E+01  0.50400000000E-02 0.  1.
          2    1    1    2    0  502  0.25382869141E+02  0.19129617962E+02  0.52143281916E+03  0.52240062905E+03  0.25500000000E-02 0.  1.
         -2    1    1    2  502    0 -0.25382869141E+02 -0.19129617962E+02  0.97649379375E+02  0.10269193556E+03  0.25500000000E-02 0.  1.
<mgrwt>
<rscale>  0 0.86475117E+02</rscale>
<asrwt>0</asrwt>
<pdfrwt beam="2">  1        1 0.46233568E-03 0.86475117E+02</pdfrwt>
<pdfrwt beam="1">  1       -1 0.95705787E-01 0.86475117E+02</pdfrwt>
<totfact> 0.46537576E+04</totfact>
</mgrwt>
</event>
<event>
 4    1  0.1893769E-002  0.5662606E+02  0.7818608E-02  0.1412562E+00
          1   -1    0    0    0  501  0.00000000000E+00  0.00000000000E+00  0.45978243054E+01  0.45978270677E+01  0.50400000000E-02 0.  1.
         -1   -1    0    0  501    0 -0.00000000000E+00 -0.00000000000E+00 -0.17434926474E+03  0.17434926481E+03  0.50400000000E-02 0.  1.
          2    1    1    2    0  502 -0.88711323597E+01  0.23938733932E+02 -0.12356246217E+03  0.12617227126E+03  0.25500000000E-02 0. -1.
         -2    1    1    2  502    0  0.88711323597E+01 -0.23938733932E+02 -0.46188978265E+02  0.52774820618E+02  0.25500000000E-02 0. -1.
<mgrwt>
<rscale>  0 0.56626056E+02</rscale>
<asrwt>0</asrwt>
<pdfrwt beam="1">  1        1 0.70735794E-03 0.56626056E+02</pdfrwt>
<pdfrwt beam="2">  1       -1 0.26822959E-01 0.56626056E+02</pdfrwt>
<totfact> 0.24369316E+05</totfact>
</mgrwt>
</event>
<event>
 4    1  0.1893769E-002  0.4242099E+02  0.7818608E-02  0.1491116E+00
          1   -1    0    0    0  501  0.00000000000E+00  0.00000000000E+00  0.13856132050E+01  0.13856223712E+01  0.50400000000E-02 0.  1.
         -1   -1    0    0  501    0 -0.00000000000E+00 -0.00000000000E+00 -0.32468188395E+03  0.32468188399E+03  0.50400000000E-02 0.  1.
          2    1    1    2    0  502 -0.10517774308E+02  0.18252759631E+02 -0.18062949101E+03  0.18185378699E+03  0.25500000000E-02 0.  1.
         -2    1    1    2  502    0  0.10517774308E+02 -0.18252759631E+02 -0.14266677973E+03  0.14421371938E+03  0.25500000000E-02 0.  1.
<mgrwt>
<rscale>  0 0.42420986E+02</rscale>
<asrwt>0</asrwt>
<pdfrwt beam="1">  1        1 0.21317223E-03 0.42420986E+02</pdfrwt>
<pdfrwt beam="2">  1       -1 0.49950999E-01 0.42420986E+02</pdfrwt>
<totfact> 0.40680373E+05</totfact>
</mgrwt>
</event>
<event>
 4    1  0.1893769E-002  0.4854002E+02  0.7818608E-02  0.1453379E+00
         -1   -1    0    0  501    0 -0.00000000000E+00  0.00000000000E+00  0.28812252013E+00  0.28816659801E+00  0.50400000000E-02 0. -1.
          1   -1    0    0    0  501  0.00000000000E+00 -0.00000000000E+00 -0.20442290920E+04  0.20442290920E+04  0.50400000000E-02 0. -1.
          2    1    1    2    0  502  0.22735789896E+02 -0.84186710121E+01 -0.97500438735E+03  0.97530577027E+03  0.25500000000E-02 0.  1.
         -2    1    1    2  502    0 -0.22735789896E+02  0.84186710121E+01 -0.10689365821E+04  0.10692114883E+04  0.25500000000E-02 0.  1.
<mgrwt>
<rscale>  0 0.48540025E+02</rscale>
<asrwt>0</asrwt>
<pdfrwt beam="2">  1        1 0.31448517E+00 0.48540025E+02</pdfrwt>
<pdfrwt beam="1">  1       -1 0.44331570E-04 0.48540025E+02</pdfrwt>
<totfact> 0.39230375E+05</totfact>
</mgrwt>
</event>
<event>
 4    1  0.1893769E-002  0.4584346E+02  0.7818608E-02  0.1469144E+00
         -1   -1    0    0  501    0 -0.00000000000E+00  0.00000000000E+00  0.73379832075E+02  0.73379832248E+02  0.50400000000E-02 0.  1.
          1   -1    0    0    0  501  0.00000000000E+00 -0.00000000000E+00 -0.71600821365E+01  0.71600839103E+01  0.50400000000E-02 0.  1.
          2    1    1    2    0  502  0.50770627408E+01  0.22256074259E+02  0.29468373070E+02  0.37275922865E+02  0.25500000000E-02 0. -1.
         -2    1    1    2  502    0 -0.50770627408E+01 -0.22256074259E+02  0.36751376868E+02  0.43263993294E+02  0.25500000000E-02 0. -1.
<mgrwt>
<rscale>  0 0.45843460E+02</rscale>
<asrwt>0</asrwt>
<pdfrwt beam="2">  1        1 0.11015512E-02 0.45843460E+02</pdfrwt>
<pdfrwt beam="1">  1       -1 0.11289205E-01 0.45843460E+02</pdfrwt>
<totfact> 0.48263790E+05</totfact>
</mgrwt>
</event>
<event>
 4    1  0.1893769E-002  0.4261545E+02  0.7818608E-02  0.1489802E+00
         -1   -1    0    0  501    0 -0.00000000000E+00  0.00000000000E+00  0.17834576281E+01  0.17834647495E+01  0.50400000000E-02 0. -1.
          1   -1    0    0    0  501  0.00000000000E+00 -0.00000000000E+00 -0.25457189788E+03  0.25457189793E+03  0.50400000000E-02 0. -1.
          2    1    1    2    0  502 -0.16553734918E+02  0.13171667160E+02 -0.14173110104E+03  0.14330116526E+03  0.25500000000E-02 0. -1.
         -2    1    1    2  502    0  0.16553734918E+02 -0.13171667160E+02 -0.11105733921E+03  0.11305419742E+03  0.25500000000E-02 0. -1.
<mgrwt>
<rscale>  0 0.42615448E+02</rscale>
<asrwt>0</asrwt>
<pdfrwt beam="2">  1        1 0.39164879E-01 0.42615448E+02</pdfrwt>
<pdfrwt beam="1">  1       -1 0.27437885E-03 0.42615448E+02</pdfrwt>
<totfact> 0.87059642E+05</totfact>
</mgrwt>
</event>
<event>
 4    1  0.1893769E-002  0.5262410E+02  0.7818608E-02  0.1431681E+00
          1   -1    0    0    0  501  0.00000000000E+00  0.00000000000E+00  0.45518641250E+01  0.45518669152E+01  0.50400000000E-02 0. -1.
         -1   -1    0    0  501    0 -0.00000000000E+00 -0.00000000000E+00 -0.15209674569E+03  0.15209674578E+03  0.50400000000E-02 0. -1.
          2    1    1    2    0  502  0.25969890488E+02  0.41230445586E+01 -0.70965397966E+02  0.75680396560E+02  0.25500000000E-02 0. -1.
         -2    1    1    2  502    0 -0.25969890488E+02 -0.41230445586E+01 -0.76579483604E+02  0.80968216134E+02  0.25500000000E-02 0. -1.
<mgrwt>
<rscale>  0 0.52624099E+02</rscale>
<asrwt>0</asrwt>
<pdfrwt beam="1">  1        1 0.70028713E-03 0.52624099E+02</pdfrwt>
<pdfrwt beam="2">  1       -1 0.23399496E-01 0.52624099E+02</pdfrwt>
<totfact> 0.30231304E+05</totfact>
</mgrwt>
</event>
<event>
 4    1  0.1893769E-002  0.6578978E+02  0.7818608E-02  0.1375025E+00
         -1   -1    0    0  501    0 -0.00000000000E+00  0.00000000000E+00  0.14841616070E+01  0.14841701645E+01  0.50400000000E-02 0. -1.
          1   -1    0    0    0  501  0.00000000000E+00 -0.00000000000E+00 -0.72907869059E+03  0.72907869060E+03  0.50400000000E-02 0. -1.
          2    1    1    2    0  502 -0.18322201131E+02  0.25896805876E+02 -0.46042949718E+03  0.46152103905E+03  0.25500000000E-02 0.  1.
         -2    1    1    2  502    0  0.18322201131E+02 -0.25896805876E+02 -0.26716503180E+03  0.26904182172E+03  0.25500000000E-02 0.  1.
<mgrwt>
<rscale>  0 0.65789778E+02</rscale>
<asrwt>0</asrwt>
<pdfrwt beam="2">  1        1 0.11216567E+00 0.65789778E+02</pdfrwt>
<pdfrwt beam="1">  1       -1 0.22833380E-03 0.65789778E+02</pdfrwt>
<totfact> 0.33204914E+05</totfact>
</mgrwt>
</event>
<event>
 4    1  0.1893769E-002  0.5596682E+02  0.7818608E-02  0.1415581E+00
         -1   -1    0    0  501    0 -0.00000000000E+00  0.00000000000E+00  0.56621927436E+01  0.56621949867E+01  0.50400000000E-02 0. -1.
          1   -1    0    0    0  501  0.00000000000E+00 -0.00000000000E+00 -0.13829818113E+03  0.13829818123E+03  0.50400000000E-02 0. -1.
          2    1    1    2    0  502 -0.26060554921E+02 -0.97711459939E+01 -0.73792260093E+02  0.78866504126E+02  0.25500000000E-02 0. -1.
         -2    1    1    2  502    0  0.26060554921E+02  0.97711459939E+01 -0.58843728297E+02  0.65093872087E+02  0.25500000000E-02 0. -1.
<mgrwt>
<rscale>  0 0.55966816E+02</rscale>
<asrwt>0</asrwt>
<pdfrwt beam="2">  1        1 0.21276641E-01 0.55966816E+02</pdfrwt>
<pdfrwt beam="1">  1       -1 0.87110686E-03 0.55966816E+02</pdfrwt>
<totfact> 0.39769116E+05</totfact>
</mgrwt>
</event>
<event>
 4    1  0.1893769E-002  0.5235457E+02  0.7818608E-02  0.1433040E+00
          1   -1    0    0    0  501  0.00000000000E+00  0.00000000000E+00  0.37331742030E+01  0.37331776051E+01  0.50400000000E-02 0. -1.
         -1   -1    0    0  501    0 -0.00000000000E+00 -0.00000000000E+00 -0.18355688353E+03  0.18355688360E+03  0.50400000000E-02 0. -1.
          2    1    1    2    0  502 -0.19828864741E+02 -0.28142038021E+01 -0.29609907117E+02  0.35747031008E+02  0.25500000000E-02 0.  1.
         -2    1    1    2  502    0  0.19828864741E+02  0.28142038021E+01 -0.15021380221E+03  0.15154303020E+03  0.25500000000E-02 0.  1.
<mgrwt>
<rscale>  0 0.52354566E+02</rscale>
<asrwt>0</asrwt>
<pdfrwt beam="1">  1        1 0.57433490E-03 0.52354566E+02</pdfrwt>
<pdfrwt beam="2">  1       -1 0.28239514E-01 0.52354566E+02</pdfrwt>
<totfact> 0.29261892E+05</totfact>
</mgrwt>
</event>
<event>
 4    1  0.1893769E-002  0.6237892E+02  0.7818608E-02  0.1388111E+00
         -1   -1    0    0  501    0 -0.00000000000E+00  0.00000000000E+00  0.30208288576E+01  0.30208330620E+01  0.50400000000E-02 0. -1.
          1   -1    0    0    0  501  0.00000000000E+00 -0.00000000000E+00 -0.32202479712E+03  0.32202479716E+03  0.50400000000E-02 0. -1.
          2    1    1    2    0  502  0.29035625249E+02  0.33621718319E+01 -0.10279950723E+03  0.10687427393E+03  0.25500000000E-02 0.  1.
         -2    1    1    2  502    0 -0.29035625249E+02 -0.33621718319E+01 -0.21620446103E+03  0.21817135630E+03  0.25500000000E-02 0.  1.
<mgrwt>
<rscale>  0 0.62378922E+02</rscale>
<asrwt>0</asrwt>
<pdfrwt beam="2">  1        1 0.49542250E-01 0.62378922E+02</pdfrwt>
<pdfrwt beam="1">  1       -1 0.46474348E-03 0.62378922E+02</pdfrwt>
<totfact> 0.34957996E+05</totfact>
</mgrwt>
</event>
<event>
 4    1  0.1893769E-002  0.7803717E+02  0.7818608E-02  0.1334716E+00
         -1   -1    0    0  501    0 -0.00000000000E+00  0.00000000000E+00  0.37546082047E+02  0.37546082385E+02  0.50400000000E-02 0. -1.
          1   -1    0    0    0  501  0.00000000000E+00 -0.00000000000E+00 -0.40548839650E+02  0.40548839963E+02  0.50400000000E-02 0. -1.
          2    1    1    2    0  502 -0.66327168608E+01 -0.37802505308E+02 -0.85370679311E+01  0.39317984127E+02  0.25500000000E-02 0.  1.
         -2    1    1    2  502    0  0.66327168608E+01  0.37802505308E+02  0.55343103280E+01  0.38776938221E+02  0.25500000000E-02 0.  1.
<mgrwt>
<rscale>  0 0.78037173E+02</rscale>
<asrwt>0</asrwt>
<pdfrwt beam="2">  1        1 0.62382831E-02 0.78037173E+02</pdfrwt>
<pdfrwt beam="1">  1       -1 0.57763203E-02 0.78037173E+02</pdfrwt>
<totfact> 0.14013654E+05</totfact>
</mgrwt>
</event>
<event>
 4    1  0.1893769E-002  0.5312515E+02  0.7818608E-02  0.1429179E+00
          1   -1    0    0    0  501  0.00000000000E+00  0.00000000000E+00  0.16633967749E+02  0.16633968513E+02  0.50400000000E-02 0.  1.
         -1   -1    0    0  501    0 -0.00000000000E+00 -0.00000000000E+00 -0.42417443045E+02  0.42417443344E+02  0.50400000000E-02 0.  1.
          2    1    1    2    0  502  0.26431918715E+01  0.24092684255E+02 -0.81071244575E+00  0.24250797081E+02  0.25500000000E-02 0.  1.
         -2    1    1    2  502    0 -0.26431918715E+01 -0.24092684255E+02 -0.24972762850E+02  0.34800614776E+02  0.25500000000E-02 0.  1.
<mgrwt>
<rscale>  0 0.53125151E+02</rscale>
<asrwt>0</asrwt>
<pdfrwt beam="1">  1        1 0.25590721E-02 0.53125151E+02</pdfrwt>
<pdfrwt beam="2">  1       -1 0.65257605E-02 0.53125151E+02</pdfrwt>
<totfact> 0.35838939E+05</totfact>
</mgrwt>
</event>
<event>
 4    1  0.1893769E-002  0.4343938E+02  0.7818608E-02  0.1484326E+00
          1   -1    0    0    0  501  0.00000000000E+00  0.00000000000E+00  0.18835543723E+04  0.18835543723E+04  0.50400000000E-02 0.  1.
         -1   -1    0    0  501    0 -0.00000000000E+00 -0.00000000000E+00 -0.25042925946E+00  0.25047997045E+00  0.50400000000E-02 0.  1.
          2    1    1    2    0  502 -0.13976717776E+02 -0.15400907831E+02  0.12131966257E+04  0.12133748758E+04  0.25500000000E-02 0.  1.
         -2    1    1    2  502    0  0.13976717776E+02  0.15400907831E+02  0.67010731734E+03  0.67042997648E+03  0.25500000000E-02 0.  1.
<mgrwt>
<rscale>  0 0.43439378E+02</rscale>
<asrwt>0</asrwt>
<pdfrwt beam="1">  1        1 0.28979080E+00 0.43439378E+02</pdfrwt>
<pdfrwt beam="2">  1       -1 0.38529725E-04 0.43439378E+02</pdfrwt>
<totfact> 0.58042321E+05</totfact>
</mgrwt>
</event>
<event>
 4    1  0.1893769E-002  0.5329574E+02  0.7818608E-02  0.1428335E+00
         -1   -1    0    0  501    0 -0.00000000000E+00  0.00000000000E+00  0.40006181163E+00  0.40009355747E+00  0.50400000000E-02 0.  1.
          1   -1    0    0    0  501  0.00000000000E+00 -0.00000000000E+00 -0.17749278256E+04  0.17749278256E+04  0.50400000000E-02 0.  1.
          2    1    1    2    0  502 -0.24875253067E+02  0.58584488908E+00 -0.56952003076E+03  0.57006331830E+03  0.25500000000E-02 0. -1.
         -2    1    1    2  502    0  0.24875253067E+02 -0.58584488908E+00 -0.12050077330E+04  0.12052646008E+04  0.25500000000E-02 0. -1.
<mgrwt>
<rscale>  0 0.53295742E+02</rscale>
<asrwt>0</asrwt>
<pdfrwt beam="2">  1        1 0.27305952E+00 0.53295742E+02</pdfrwt>
<pdfrwt beam="1">  1       -1 0.61551835E-04 0.53295742E+02</pdfrwt>
<totfact> 0.37480625E+05</totfact>
</mgrwt>
</event>
<event>
 4    1  0.1893769E-002  0.1854916E+03  0.7818608E-02  0.1162592E+00
         -1   -1    0    0  501    0 -0.00000000000E+00  0.00000000000E+00  0.50060796971E+01  0.50060822342E+01  0.50400000000E-02 0. -1.
          1   -1    0    0    0  501  0.00000000000E+00 -0.00000000000E+00 -0.17182673726E+04  0.17182673726E+04  0.50400000000E-02 0. -1.
          2    1    1    2    0  502  0.85490082628E+02  0.35338154437E+02 -0.91856723046E+03  0.92321346192E+03  0.25500000000E-02 0.  1.
         -2    1    1    2  502    0 -0.85490082628E+02 -0.35338154437E+02 -0.79469406240E+03  0.80005999288E+03  0.25500000000E-02 0.  1.
<mgrwt>
<rscale>  0 0.18549162E+03</rscale>
<asrwt>0</asrwt>
<pdfrwt beam="2">  1        1 0.26434836E+00 0.18549162E+03</pdfrwt>
<pdfrwt beam="1">  1       -1 0.77016767E-03 0.18549162E+03</pdfrwt>
<totfact> 0.13904939E+04</totfact>
</mgrwt>
</event>
<event>
 4    1  0.1893769E-002  0.6681603E+02  0.7818608E-02  0.1371268E+00
          1   -1    0    0    0  501  0.00000000000E+00  0.00000000000E+00  0.13472788630E+04  0.13472788630E+04  0.50400000000E-02 0.  1.
         -1   -1    0    0  501    0 -0.00000000000E+00 -0.00000000000E+00 -0.82839937117E+00  0.82841470277E+00  0.50400000000E-02 0.  1.
          2    1    1    2    0  502 -0.10980972268E+01  0.31704596409E+02  0.46189430513E+03  0.46298243635E+03  0.25500000000E-02 0.  1.
         -2    1    1    2  502    0  0.10980972268E+01 -0.31704596409E+02  0.88455615849E+03  0.88512484136E+03  0.25500000000E-02 0.  1.
<mgrwt>
<rscale>  0 0.66816025E+02</rscale>
<asrwt>0</asrwt>
<pdfrwt beam="1">  1        1 0.20727383E+00 0.66816025E+02</pdfrwt>
<pdfrwt beam="2">  1       -1 0.12744714E-03 0.66816025E+02</pdfrwt>
<totfact> 0.26855936E+05</totfact>
</mgrwt>
</event>
<event>
 4    1  0.1893769E-002  0.4334170E+02  0.7818608E-02  0.1484968E+00
          1   -1    0    0    0  501  0.00000000000E+00  0.00000000000E+00  0.62943773977E+02  0.62943774179E+02  0.50400000000E-02 0. -1.
         -1   -1    0    0  501    0 -0.00000000000E+00 -0.00000000000E+00 -0.74610337870E+01  0.74610354893E+01  0.50400000000E-02 0. -1.
          2    1    1    2    0  502  0.19478054011E+02 -0.94670367720E+01  0.26476504652E+02  0.34205623491E+02  0.25500000000E-02 0.  1.
         -2    1    1    2  502    0 -0.19478054011E+02  0.94670367720E+01  0.29006235538E+02  0.36199186177E+02  0.25500000000E-02 0.  1.
<mgrwt>
<rscale>  0 0.43341698E+02</rscale>
<asrwt>0</asrwt>
<pdfrwt beam="1">  1        1 0.96836578E-02 0.43341698E+02</pdfrwt>
<pdfrwt beam="2">  1       -1 0.11478515E-02 0.43341698E+02</pdfrwt>
<totfact> 0.68439348E+05</totfact>
</mgrwt>
</event>
<event>
 4    1  0.1893769E-002  0.1741932E+03  0.7818608E-02  0.1173544E+00
         -1   -1    0    0  501    0 -0.00000000000E+00  0.00000000000E+00  0.38458287179E+02  0.38458287509E+02  0.50400000000E-02 0.  1.
          1   -1    0    0    0  501  0.00000000000E+00 -0.00000000000E+00 -0.19724785342E+03  0.19724785348E+03  0.50400000000E-02 0.  1.
          2    1    1    2    0  502 -0.46640442388E+02  0.43458795588E+02  0.90662712213E+00  0.63755939012E+02  0.25500000000E-02 0.  1.
         -2    1    1    2  502    0  0.46640442388E+02 -0.43458795588E+02 -0.15969619336E+03  0.17195020198E+03  0.25500000000E-02 0.  1.
<mgrwt>
<rscale>  0 0.17419316E+03</rscale>
<asrwt>0</asrwt>
<pdfrwt beam="2">  1        1 0.30345823E-01 0.17419316E+03</pdfrwt>
<pdfrwt beam="1">  1       -1 0.59166597E-02 0.17419316E+03</pdfrwt>
<totfact> 0.19400121E+04</totfact>
</mgrwt>
</event>
<event>
 4    1  0.1893769E-002  0.6498289E+02  0.7818608E-02  0.1378036E+00
         -1   -1    0    0  501    0 -0.00000000000E+00  0.00000000000E+00  0.37676162219E+03  0.37676162223E+03  0.50400000000E-02 0.  1.
          1   -1    0    0    0  501  0.00000000000E+00 -0.00000000000E+00 -0.28020183822E+01  0.28020229149E+01  0.50400000000E-02 0.  1.
          2    1    1    2    0  502  0.18926357017E+02  0.19269207560E+02  0.29247125547E+03  0.29371575483E+03  0.25500000000E-02 0. -1.
         -2    1    1    2  502    0 -0.18926357017E+02 -0.19269207560E+02  0.81488348338E+02  0.85847890314E+02  0.25500000000E-02 0. -1.
<mgrwt>
<rscale>  0 0.64982886E+02</rscale>
<asrwt>0</asrwt>
<pdfrwt beam="2">  1        1 0.43108029E-03 0.64982886E+02</pdfrwt>
<pdfrwt beam="1">  1       -1 0.57963301E-01 0.64982886E+02</pdfrwt>
<totfact> 0.13164809E+05</totfact>
</mgrwt>
</event>
<event>
 4    1  0.1893769E-002  0.4778511E+02  0.7818608E-02  0.1457668E+00
          1   -1    0    0    0  501  0.00000000000E+00  0.00000000000E+00  0.34215881007E+03  0.34215881011E+03  0.50400000000E-02 0. -1.
         -1   -1    0    0  501    0 -0.00000000000E+00 -0.00000000000E+00 -0.16683856161E+01  0.16683932287E+01  0.50400000000E-02 0. -1.
          2    1    1    2    0  502  0.20937475180E+02 -0.10447713258E+00  0.87432153748E+02  0.89904228477E+02  0.25500000000E-02 0. -1.
         -2    1    1    2  502    0 -0.20937475180E+02  0.10447713258E+00  0.25305827070E+03  0.25392297486E+03  0.25500000000E-02 0. -1.
<mgrwt>
<rscale>  0 0.47785109E+02</rscale>
<asrwt>0</asrwt>
<pdfrwt beam="1">  1        1 0.52639878E-01 0.47785109E+02</pdfrwt>
<pdfrwt beam="2">  1       -1 0.25667500E-03 0.47785109E+02</pdfrwt>
<totfact> 0.69079950E+05</totfact>
</mgrwt>
</event>
<event>
 4    1  0.1893769E-002  0.5017428E+02  0.7818608E-02  0.1444404E+00
          1   -1    0    0    0  501  0.00000000000E+00  0.00000000000E+00  0.14909186168E+01  0.14909271355E+01  0.50400000000E-02 0.  1.
         -1   -1    0    0  501    0 -0.00000000000E+00 -0.00000000000E+00 -0.42213084776E+03  0.42213084779E+03  0.50400000000E-02 0.  1.
          2    1    1    2    0  502 -0.72301817069E+01 -0.20675802973E+02 -0.10705257223E+03  0.10927038749E+03  0.25500000000E-02 0.  1.
         -2    1    1    2  502    0  0.72301817069E+01  0.20675802973E+02 -0.31358735692E+03  0.31435138743E+03  0.25500000000E-02 0.  1.
<mgrwt>
<rscale>  0 0.50174278E+02</rscale>
<asrwt>0</asrwt>
<pdfrwt beam="1">  1        1 0.22937309E-03 0.50174278E+02</pdfrwt>
<pdfrwt beam="2">  1       -1 0.64943113E-01 0.50174278E+02</pdfrwt>
<totfact> 0.23817808E+05</totfact>
</mgrwt>
</event>
<event>
 4    1  0.1893769E-002  0.4765554E+02  0.7818608E-02  0.1458413E+00
         -1   -1    0    0  501    0 -0.00000000000E+00  0.00000000000E+00  0.43715521570E+00  0.43718426803E+00  0.50400000000E-02 0.  1.
          1   -1    0    0    0  501  0.00000000000E+00 -0.00000000000E+00 -0.12987235476E+04  0.12987235476E+04  0.50400000000E-02 0.  1.
          2    1    1    2    0  502  0.17946410359E+02  0.12618079769E+02 -0.39563622910E+03  0.39624400988E+03  0.25500000000E-02 0.  1.
         -2    1    1    2  502    0 -0.17946410359E+02 -0.12618079769E+02 -0.90265016326E+03  0.90291672197E+03  0.25500000000E-02 0.  1.
<mgrwt>
<rscale>  0 0.47655541E+02</rscale>
<asrwt>0</asrwt>
<pdfrwt beam="2">  1        1 0.19980054E+00 0.47655541E+02</pdfrwt>
<pdfrwt beam="1">  1       -1 0.67257924E-04 0.47655541E+02</pdfrwt>
<totfact> 0.64341470E+05</totfact>
</mgrwt>
</event>
<event>
 4    1  0.1893769E-002  0.6661309E+02  0.7818608E-02  0.1372004E+00
          1   -1    0    0    0  501  0.00000000000E+00  0.00000000000E+00  0.39142877647E+02  0.39142877971E+02  0.50400000000E-02 0. -1.
         -1   -1    0    0  501    0 -0.00000000000E+00 -0.00000000000E+00 -0.28340429924E+02  0.28340430372E+02  0.50400000000E-02 0. -1.
          2    1    1    2    0  502 -0.23789586846E+02  0.14615809187E+02  0.23797738445E+02  0.36686491820E+02  0.25500000000E-02 0. -1.
         -2    1    1    2  502    0  0.23789586846E+02 -0.14615809187E+02 -0.12995290722E+02  0.30796816523E+02  0.25500000000E-02 0. -1.
<mgrwt>
<rscale>  0 0.66613092E+02</rscale>
<asrwt>0</asrwt>
<pdfrwt beam="1">  1        1 0.60219812E-02 0.66613092E+02</pdfrwt>
<pdfrwt beam="2">  1       -1 0.43600662E-02 0.66613092E+02</pdfrwt>
<totfact> 0.21446681E+05</totfact>
</mgrwt>
</event>
<event>
 4    1  0.1893769E-002  0.5622623E+02  0.7818608E-02  0.1414387E+00
         -1   -1    0    0  501    0 -0.00000000000E+00  0.00000000000E+00  0.17888394311E+02  0.17888395021E+02  0.50400000000E-02 0.  1.
          1   -1    0    0    0  501  0.00000000000E+00 -0.00000000000E+00 -0.44182119423E+02  0.44182119711E+02  0.50400000000E-02 0.  1.
          2    1    1    2    0  502  0.26558587670E+02 -0.69228160482E+00 -0.23295291388E+02  0.35334238922E+02  0.25500000000E-02 0.  1.
         -2    1    1    2  502    0 -0.26558587670E+02  0.69228160482E+00 -0.29984337239E+01  0.26736275809E+02  0.25500000000E-02 0.  1.
<mgrwt>
<rscale>  0 0.56226229E+02</rscale>
<asrwt>0</asrwt>
<pdfrwt beam="2">  1        1 0.67972492E-02 0.56226229E+02</pdfrwt>
<pdfrwt beam="1">  1       -1 0.27520607E-02 0.56226229E+02</pdfrwt>
<totfact> 0.34017729E+05</totfact>
</mgrwt>
</event>
<event>
 4    1  0.1893769E-002  0.4968585E+02  0.7818608E-02  0.1447043E+00
          1   -1    0    0    0  501  0.00000000000E+00  0.00000000000E+00  0.81645274923E+02  0.81645275078E+02  0.50400000000E-02 0.  1.
         -1   -1    0    0  501    0 -0.00000000000E+00 -0.00000000000E+00 -0.75591744629E+01  0.75591761431E+01  0.50400000000E-02 0.  1.
          2    1    1    2    0  502  0.12382336740E+02  0.21515313763E+02  0.35302409273E+02  0.43156588100E+02  0.25500000000E-02 0. -1.
         -2    1    1    2  502    0 -0.12382336740E+02 -0.21515313763E+02  0.38783691187E+02  0.46047863121E+02  0.25500000000E-02 0. -1.
<mgrwt>
<rscale>  0 0.49685851E+02</rscale>
<asrwt>0</asrwt>
<pdfrwt beam="1">  1        1 0.12560812E-01 0.49685851E+02</pdfrwt>
<pdfrwt beam="2">  1       -1 0.11629501E-02 0.49685851E+02</pdfrwt>
<totfact> 0.49989995E+05</totfact>
</mgrwt>
</event>
<event>
 4    1  0.1893769E-002  0.4974388E+02  0.7818608E-02  0.1446728E+00
          1   -1    0    0    0  501  0.00000000000E+00  0.00000000000E+00  0.94145398958E+03  0.94145398959E+03  0.50400000000E-02 0.  1.
         -1   -1    0    0  501    0 -0.00000000000E+00 -0.00000000000E+00 -0.65707327389E+00  0.65709260295E+00  0.50400000000E-02 0.  1.
          2    1    1    2    0  502  0.19684530054E+02 -0.55928330758E+01  0.20265575414E+03  0.20368631569E+03  0.25500000000E-02 0. -1.
         -2    1    1    2  502    0 -0.19684530054E+02  0.55928330758E+01  0.73814116216E+03  0.73842476651E+03  0.25500000000E-02 0. -1.
<mgrwt>
<rscale>  0 0.49743879E+02</rscale>
<asrwt>0</asrwt>
<pdfrwt beam="1">  1        1 0.14483966E+00 0.49743879E+02</pdfrwt>
<pdfrwt beam="2">  1       -1 0.10108927E-03 0.49743879E+02</pdfrwt>
<totfact> 0.65195601E+05</totfact>
</mgrwt>
</event>
<event>
 4    1  0.1893769E-002  0.7177580E+02  0.7818608E-02  0.1354156E+00
          1   -1    0    0    0  501  0.00000000000E+00  0.00000000000E+00  0.87749001003E+03  0.87749001004E+03  0.50400000000E-02 0.  1.
         -1   -1    0    0  501    0 -0.00000000000E+00 -0.00000000000E+00 -0.14677517446E+01  0.14677603978E+01  0.50400000000E-02 0.  1.
          2    1    1    2    0  502 -0.19115649678E+02 -0.12396719413E+02  0.77756765546E+03  0.77790137263E+03  0.25500000000E-02 0. -1.
         -2    1    1    2  502    0  0.19115649678E+02  0.12396719413E+02  0.98454602820E+02  0.10105639781E+03  0.25500000000E-02 0. -1.
<mgrwt>
<rscale>  0 0.71775798E+02</rscale>
<asrwt>0</asrwt>
<pdfrwt beam="1">  1        1 0.13499841E+00 0.71775798E+02</pdfrwt>
<pdfrwt beam="2">  1       -1 0.22580872E-03 0.71775798E+02</pdfrwt>
<totfact> 0.26110370E+05</totfact>
</mgrwt>
</event>
<event>
 4    1  0.1893769E-002  0.5286376E+02  0.7818608E-02  0.1430480E+00
         -1   -1    0    0  501    0 -0.00000000000E+00  0.00000000000E+00  0.63517086467E+01  0.63517106463E+01  0.50400000000E-02 0. -1.
          1   -1    0    0    0  501  0.00000000000E+00 -0.00000000000E+00 -0.10999308446E+03  0.10999308457E+03  0.50400000000E-02 0. -1.
          2    1    1    2    0  502 -0.62212357238E+01  0.22617692450E+02 -0.25011901417E+02  0.34290800584E+02  0.25500000000E-02 0.  1.
         -2    1    1    2  502    0  0.62212357238E+01 -0.22617692450E+02 -0.78629474393E+02  0.82053994635E+02  0.25500000000E-02 0.  1.
<mgrwt>
<rscale>  0 0.52863755E+02</rscale>
<asrwt>0</asrwt>
<pdfrwt beam="2">  1        1 0.16922012E-01 0.52863755E+02</pdfrwt>
<pdfrwt beam="1">  1       -1 0.97718619E-03 0.52863755E+02</pdfrwt>
<totfact> 0.44432082E+05</totfact>
</mgrwt>
</event>
<event>
 4    1  0.1893769E-002  0.5396196E+02  0.7818608E-02  0.1425073E+00
          1   -1    0    0    0  501  0.00000000000E+00  0.00000000000E+00  0.46116932780E+03  0.46116932783E+03  0.50400000000E-02 0. -1.
         -1   -1    0    0  501    0 -0.00000000000E+00 -0.00000000000E+00 -0.15785336436E+01  0.15785416895E+01  0.50400000000E-02 0. -1.
          2    1    1    2    0  502  0.15738034998E+02 -0.20436272670E+02  0.29766948781E+03  0.29878495773E+03  0.25500000000E-02 0. -1.
         -2    1    1    2  502    0 -0.15738034998E+02  0.20436272670E+02  0.16192130634E+03  0.16396291179E+03  0.25500000000E-02 0. -1.
<mgrwt>
<rscale>  0 0.53961956E+02</rscale>
<asrwt>0</asrwt>
<pdfrwt beam="1">  1        1 0.70949103E-01 0.53961956E+02</pdfrwt>
<pdfrwt beam="2">  1       -1 0.24285204E-03 0.53961956E+02</pdfrwt>
<totfact> 0.53358742E+05</totfact>
</mgrwt>
</event>
<event>
 4    1  0.1893769E-002  0.4624458E+02  0.7818608E-02  0.1466718E+00
          1   -1    0    0    0  501  0.00000000000E+00  0.00000000000E+00  0.40019818374E+03  0.40019818377E+03  0.50400000000E-02 0.  1.
         -1   -1    0    0  501    0 -0.00000000000E+00 -0.00000000000E+00 -0.13359338347E+01  0.13359433417E+01  0.50400000000E-02 0.  1.
          2    1    1    2    0  502 -0.77279964847E+01  0.21557837748E+02  0.17173041819E+03  0.17325068207E+03  0.25500000000E-02 0. -1.
         -2    1    1    2  502    0  0.77279964847E+01 -0.21557837748E+02  0.22713183172E+03  0.22828344505E+03  0.25500000000E-02 0. -1.
<mgrwt>
<rscale>  0 0.46244576E+02</rscale>
<asrwt>0</asrwt>
<pdfrwt beam="1">  1        1 0.61569031E-01 0.46244576E+02</pdfrwt>
<pdfrwt beam="2">  1       -1 0.20552875E-03 0.46244576E+02</pdfrwt>
<totfact> 0.76778559E+05</totfact>
</mgrwt>
</event>
<event>
 4    1  0.1893769E-002  0.4544230E+02  0.7818608E-02  0.1471599E+00
          1   -1    0    0    0  501  0.00000000000E+00  0.00000000000E+00  0.15450144270E+01  0.15450226475E+01  0.50400000000E-02 0.  1.
         -1   -1    0    0  501    0 -0.00000000000E+00 -0.00000000000E+00 -0.33413883954E+03  0.33413883958E+03  0.50400000000E-02 0.  1.
          2    1    1    2    0  502  0.10641416678E+02  0.17167364099E+02 -0.24316913941E+03  0.24400653374E+03  0.25500000000E-02 0.  1.
         -2    1    1    2  502    0 -0.10641416678E+02 -0.17167364099E+02 -0.89424685705E+02  0.91677328490E+02  0.25500000000E-02 0.  1.
<mgrwt>
<rscale>  0 0.45442302E+02</rscale>
<asrwt>0</asrwt>
<pdfrwt beam="1">  1        1 0.23769543E-03 0.45442302E+02</pdfrwt>
<pdfrwt beam="2">  1       -1 0.51405919E-01 0.45442302E+02</pdfrwt>
<totfact> 0.33975352E+05</totfact>
</mgrwt>
</event>
<event>
 4    1  0.1893769E-002  0.4627773E+02  0.7818608E-02  0.1466519E+00
          1   -1    0    0    0  501  0.00000000000E+00  0.00000000000E+00  0.18870555114E+03  0.18870555121E+03  0.50400000000E-02 0.  1.
         -1   -1    0    0  501    0 -0.00000000000E+00 -0.00000000000E+00 -0.28372597093E+01  0.28372641858E+01  0.50400000000E-02 0.  1.
          2    1    1    2    0  502  0.13938624995E+02 -0.14913046906E+02  0.47835762803E+02  0.52009080401E+02  0.25500000000E-02 0. -1.
         -2    1    1    2  502    0 -0.13938624995E+02  0.14913046906E+02  0.13803252863E+03  0.13953373499E+03  0.25500000000E-02 0. -1.
<mgrwt>
<rscale>  0 0.46277731E+02</rscale>
<asrwt>0</asrwt>
<pdfrwt beam="1">  1        1 0.29031636E-01 0.46277731E+02</pdfrwt>
<pdfrwt beam="2">  1       -1 0.43650166E-03 0.46277731E+02</pdfrwt>
<totfact> 0.67486293E+05</totfact>
</mgrwt>
</event>
<event>
 4    1  0.1893769E-002  0.7536898E+02  0.7818608E-02  0.1342732E+00
         -1   -1    0    0  501    0 -0.00000000000E+00  0.00000000000E+00  0.29132853267E+01  0.29132896863E+01  0.50400000000E-02 0.  1.
          1   -1    0    0    0  501  0.00000000000E+00 -0.00000000000E+00 -0.48746333170E+03  0.48746333172E+03  0.50400000000E-02 0.  1.
          2    1    1    2    0  502  0.25630167786E+02  0.27207072742E+02 -0.27347193636E+03  0.27601454725E+03  0.25500000000E-02 0. -1.
         -2    1    1    2  502    0 -0.25630167786E+02 -0.27207072742E+02 -0.21107811001E+03  0.21436207416E+03  0.25500000000E-02 0. -1.
<mgrwt>
<rscale>  0 0.75368982E+02</rscale>
<asrwt>0</asrwt>
<pdfrwt beam="2">  1        1 0.74994294E-01 0.75368982E+02</pdfrwt>
<pdfrwt beam="1">  1       -1 0.44819847E-03 0.75368982E+02</pdfrwt>
<totfact> 0.22886923E+05</totfact>
</mgrwt>
</event>
<event>
 4    1  0.1893769E-002  0.6734104E+02  0.7818608E-02  0.1369376E+00
         -1   -1    0    0  501    0 -0.00000000000E+00  0.00000000000E+00  0.38947048650E+00  0.38950309557E+00  0.50400000000E-02 0. -1.
          1   -1    0    0    0  501  0.00000000000E+00 -0.00000000000E+00 -0.29107636208E+04  0.29107636208E+04  0.50400000000E-02 0. -1.
          2    1    1    2    0  502 -0.30302477326E+02  0.14659808397E+02 -0.14873600128E+04  0.14877408906E+04  0.25500000000E-02 0. -1.
         -2    1    1    2  502    0  0.30302477326E+02 -0.14659808397E+02 -0.14230141376E+04  0.14234122333E+04  0.25500000000E-02 0. -1.
<mgrwt>
<rscale>  0 0.67341042E+02</rscale>
<asrwt>0</asrwt>
<pdfrwt beam="2">  1        1 0.44779237E+00 0.67341042E+02</pdfrwt>
<pdfrwt beam="1">  1       -1 0.59923376E-04 0.67341042E+02</pdfrwt>
<totfact> 0.77219528E+04</totfact>
</mgrwt>
</event>
<event>
 4    1  0.1893769E-002  0.1103931E+03  0.7818608E-02  0.1259844E+00
         -1   -1    0    0  501    0 -0.00000000000E+00  0.00000000000E+00  0.13365152803E+02  0.13365153753E+02  0.50400000000E-02 0. -1.
          1   -1    0    0    0  501  0.00000000000E+00 -0.00000000000E+00 -0.22795527544E+03  0.22795527549E+03  0.50400000000E-02 0. -1.
          2    1    1    2    0  502 -0.44658343927E+02  0.21454163680E+02 -0.54106747215E+02  0.73363403153E+02  0.25500000000E-02 0.  1.
         -2    1    1    2  502    0  0.44658343927E+02 -0.21454163680E+02 -0.16048337542E+03  0.16795702609E+03  0.25500000000E-02 0.  1.
<mgrwt>
<rscale>  0 0.11039307E+03</rscale>
<asrwt>0</asrwt>
<pdfrwt beam="2">  1        1 0.35070039E-01 0.11039307E+03</pdfrwt>
<pdfrwt beam="1">  1       -1 0.20561776E-02 0.11039307E+03</pdfrwt>
<totfact> 0.72412683E+04</totfact>
</mgrwt>
</event>
<event>
 4    1  0.1893769E-002  0.4500825E+02  0.7818608E-02  0.1474290E+00
         -1   -1    0    0  501    0 -0.00000000000E+00  0.00000000000E+00  0.23059218936E+00  0.23064726184E+00  0.50400000000E-02 0. -1.
          1   -1    0    0    0  501  0.00000000000E+00 -0.00000000000E+00 -0.21959769935E+04  0.21959769935E+04  0.50400000000E-02 0. -1.
          2    1    1    2    0  502 -0.25164310018E+01  0.21724251377E+02 -0.83893368203E+03  0.83921868329E+03  0.25500000000E-02 0. -1.
         -2    1    1    2  502    0  0.25164310018E+01 -0.21724251377E+02 -0.13568127192E+04  0.13569889574E+04  0.25500000000E-02 0. -1.
<mgrwt>
<rscale>  0 0.45008249E+02</rscale>
<asrwt>0</asrwt>
<pdfrwt beam="2">  1        1 0.33782587E+00 0.45008249E+02</pdfrwt>
<pdfrwt beam="1">  1       -1 0.35481717E-04 0.45008249E+02</pdfrwt>
<totfact> 0.42110453E+05</totfact>
</mgrwt>
</event>
<event>
 4    1  0.1893769E-002  0.9477114E+02  0.7818608E-02  0.1291692E+00
         -1   -1    0    0  501    0 -0.00000000000E+00  0.00000000000E+00  0.20235926103E+03  0.20235926109E+03  0.50400000000E-02 0. -1.
          1   -1    0    0    0  501  0.00000000000E+00 -0.00000000000E+00 -0.11096069018E+02  0.11096070162E+02  0.50400000000E-02 0. -1.
          2    1    1    2    0  502 -0.21934167365E+02 -0.15022739501E+02  0.72841428792E+01  0.27565361309E+02  0.25500000000E-02 0. -1.
         -2    1    1    2  502    0  0.21934167365E+02  0.15022739501E+02  0.18397904914E+03  0.18588996995E+03  0.25500000000E-02 0. -1.
<mgrwt>
<rscale>  0 0.94771144E+02</rscale>
<asrwt>0</asrwt>
<pdfrwt beam="2">  1        1 0.17070876E-02 0.94771144E+02</pdfrwt>
<pdfrwt beam="1">  1       -1 0.31132194E-01 0.94771144E+02</pdfrwt>
<totfact> 0.62548009E+04</totfact>
</mgrwt>
</event>
<event>
 4    1  0.1893769E-002  0.4405775E+02  0.7818608E-02  0.1480311E+00
          1   -1    0    0    0  501  0.00000000000E+00  0.00000000000E+00  0.19141733686E+03  0.19141733692E+03  0.50400000000E-02 0.  1.
         -1   -1    0    0  501    0 -0.00000000000E+00 -0.00000000000E+00 -0.25351458581E+01  0.25351508680E+01  0.50400000000E-02 0.  1.
          2    1    1    2    0  502 -0.15128137281E+01 -0.21697893780E+02  0.10980744579E+03  0.11194088778E+03  0.25500000000E-02 0. -1.
         -2    1    1    2  502    0  0.15128137281E+01  0.21697893780E+02  0.79074745208E+02  0.82011600010E+02  0.25500000000E-02 0. -1.
<mgrwt>
<rscale>  0 0.44057751E+02</rscale>
<asrwt>0</asrwt>
<pdfrwt beam="1">  1        1 0.29448821E-01 0.44057751E+02</pdfrwt>
<pdfrwt beam="2">  1       -1 0.39002283E-03 0.44057751E+02</pdfrwt>
<totfact> 0.76400636E+05</totfact>
</mgrwt>
</event>
<event>
 4    1  0.1893769E-002  0.5222140E+02  0.7818608E-02  0.1433715E+00
         -1   -1    0    0  501    0 -0.00000000000E+00  0.00000000000E+00  0.69594910809E+01  0.69594929058E+01  0.50400000000E-02 0. -1.
          1   -1    0    0    0  501  0.00000000000E+00 -0.00000000000E+00 -0.97962410190E+02  0.97962410319E+02  0.50400000000E-02 0. -1.
          2    1    1    2    0  502 -0.71079514299E+01  0.20001613981E+02 -0.76050234860E+02  0.78957113449E+02  0.25500000000E-02 0.  1.
         -2    1    1    2  502    0  0.71079514299E+01 -0.20001613981E+02 -0.14952684249E+02  0.25964789776E+02  0.25500000000E-02 0.  1.
<mgrwt>
<rscale>  0 0.52221399E+02</rscale>
<asrwt>0</asrwt>
<pdfrwt beam="2">  1        1 0.15071139E-01 0.52221399E+02</pdfrwt>
<pdfrwt beam="1">  1       -1 0.10706912E-02 0.52221399E+02</pdfrwt>
<totfact> 0.45107789E+05</totfact>
</mgrwt>
</event>
<event>
 4    1  0.1893769E-002  0.6336176E+02  0.7818608E-02  0.1384242E+00
         -1   -1    0    0  501    0 -0.00000000000E+00  0.00000000000E+00  0.96613030209E+01  0.96613043355E+01  0.50400000000E-02 0.  1.
          1   -1    0    0    0  501  0.00000000000E+00 -0.00000000000E+00 -0.10388640756E+03  0.10388640768E+03  0.50400000000E-02 0.  1.
          2    1    1    2    0  502  0.30911614572E+02 -0.22934650795E+01 -0.58848830600E+02  0.66512951874E+02  0.25500000000E-02 0. -1.
         -2    1    1    2  502    0 -0.30911614572E+02  0.22934650795E+01 -0.35376273941E+02  0.47034760146E+02  0.25500000000E-02 0. -1.
<mgrwt>
<rscale>  0 0.63361760E+02</rscale>
<asrwt>0</asrwt>
<pdfrwt beam="2">  1        1 0.15982524E-01 0.63361760E+02</pdfrwt>
<pdfrwt beam="1">  1       -1 0.14863545E-02 0.63361760E+02</pdfrwt>
<totfact> 0.27673816E+05</totfact>
</mgrwt>
</event>
<event>
 4    1  0.1893769E-002  0.4526894E+02  0.7818608E-02  0.1472670E+00
          1   -1    0    0    0  501  0.00000000000E+00  0.00000000000E+00  0.57894593386E+03  0.57894593389E+03  0.50400000000E-02 0. -1.
         -1   -1    0    0  501    0 -0.00000000000E+00 -0.00000000000E+00 -0.88490999837E+00  0.88492435090E+00  0.50400000000E-02 0. -1.
          2    1    1    2    0  502  0.11619613281E+02  0.19399389572E+02  0.30162908878E+03  0.30247555097E+03  0.25500000000E-02 0.  1.
         -2    1    1    2  502    0 -0.11619613281E+02 -0.19399389572E+02  0.27643193509E+03  0.27735530727E+03  0.25500000000E-02 0.  1.
<mgrwt>
<rscale>  0 0.45268939E+02</rscale>
<asrwt>0</asrwt>
<pdfrwt beam="1">  1        1 0.89068444E-01 0.45268939E+02</pdfrwt>
<pdfrwt beam="2">  1       -1 0.13614135E-03 0.45268939E+02</pdfrwt>
<totfact> 0.84341049E+05</totfact>
</mgrwt>
</event>
<event>
 4    1  0.1893769E-002  0.5622661E+02  0.7818608E-02  0.1414386E+00
          1   -1    0    0    0  501  0.00000000000E+00  0.00000000000E+00  0.82081284102E+02  0.82081284257E+02  0.50400000000E-02 0.  1.
         -1   -1    0    0  501    0 -0.00000000000E+00 -0.00000000000E+00 -0.96289646410E+01  0.96289659600E+01  0.50400000000E-02 0.  1.
          2    1    1    2    0  502 -0.24136689116E+02  0.13582000401E+02  0.44100649412E+02  0.52076076863E+02  0.25500000000E-02 0. -1.
         -2    1    1    2  502    0  0.24136689116E+02 -0.13582000401E+02  0.28351670050E+02  0.39634173354E+02  0.25500000000E-02 0. -1.
<mgrwt>
<rscale>  0 0.56226608E+02</rscale>
<asrwt>0</asrwt>
<pdfrwt beam="1">  1        1 0.12627890E-01 0.56226608E+02</pdfrwt>
<pdfrwt beam="2">  1       -1 0.14813793E-02 0.56226608E+02</pdfrwt>
<totfact> 0.36491291E+05</totfact>
</mgrwt>
</event>
<event>
 4    1  0.1893769E-002  0.4422037E+02  0.7818608E-02  0.1479268E+00
         -1   -1    0    0  501    0 -0.00000000000E+00  0.00000000000E+00  0.20447437680E+01  0.20447499795E+01  0.50400000000E-02 0.  1.
          1   -1    0    0    0  501  0.00000000000E+00 -0.00000000000E+00 -0.23908109088E+03  0.23908109093E+03  0.50400000000E-02 0.  1.
          2    1    1    2    0  502 -0.14331361781E+02  0.16511441709E+02 -0.10056133963E+03  0.10291063440E+03  0.25500000000E-02 0. -1.
         -2    1    1    2  502    0  0.14331361781E+02 -0.16511441709E+02 -0.13647500748E+03  0.13821520651E+03  0.25500000000E-02 0. -1.
<mgrwt>
<rscale>  0 0.44220372E+02</rscale>
<asrwt>0</asrwt>
<pdfrwt beam="2">  1        1 0.36781685E-01 0.44220372E+02</pdfrwt>
<pdfrwt beam="1">  1       -1 0.31457664E-03 0.44220372E+02</pdfrwt>
<totfact> 0.78646400E+05</totfact>
</mgrwt>
</event>
<event>
 4    1  0.1893769E-002  0.5991207E+02  0.7818608E-02  0.1398201E+00
          1   -1    0    0    0  501  0.00000000000E+00  0.00000000000E+00  0.16822617562E+03  0.16822617569E+03  0.50400000000E-02 0.  1.
         -1   -1    0    0  501    0 -0.00000000000E+00 -0.00000000000E+00 -0.53342691137E+01  0.53342714946E+01  0.50400000000E-02 0.  1.
          2    1    1    2    0  502 -0.95041897410E+01 -0.20050591912E+02  0.13974591756E+03  0.14149656300E+03  0.25500000000E-02 0.  1.
         -2    1    1    2  502    0  0.95041897410E+01  0.20050591912E+02  0.23145988939E+02  0.32063884187E+02  0.25500000000E-02 0.  1.
<mgrwt>
<rscale>  0 0.59912066E+02</rscale>
<asrwt>0</asrwt>
<pdfrwt beam="1">  1        1 0.25880947E-01 0.59912066E+02</pdfrwt>
<pdfrwt beam="2">  1       -1 0.82065708E-03 0.59912066E+02</pdfrwt>
<totfact> 0.34506776E+05</totfact>
</mgrwt>
</event>
<event>
 4    1  0.1893769E-002  0.8965472E+02  0.7818608E-02  0.1303690E+00
          1   -1    0    0    0  501  0.00000000000E+00  0.00000000000E+00  0.88690994358E+02  0.88690994501E+02  0.50400000000E-02 0.  1.
         -1   -1    0    0  501    0 -0.00000000000E+00 -0.00000000000E+00 -0.22657226513E+02  0.22657227074E+02  0.50400000000E-02 0.  1.
          2    1    1    2    0  502 -0.23122496061E+02  0.21859412617E+02  0.72232543428E+02  0.78930501586E+02  0.25500000000E-02 0. -1.
         -2    1    1    2  502    0  0.23122496061E+02 -0.21859412617E+02 -0.61987755832E+01  0.32417719989E+02  0.25500000000E-02 0. -1.
<mgrwt>
<rscale>  0 0.89654715E+02</rscale>
<asrwt>0</asrwt>
<pdfrwt beam="1">  1        1 0.13644768E-01 0.89654715E+02</pdfrwt>
<pdfrwt beam="2">  1       -1 0.34857273E-02 0.89654715E+02</pdfrwt>
<totfact> 0.10723516E+05</totfact>
</mgrwt>
</event>
<event>
 4    1  0.1893769E-002  0.4216095E+02  0.7818608E-02  0.1492886E+00
         -1   -1    0    0  501    0 -0.00000000000E+00  0.00000000000E+00  0.75846905555E+01  0.75846922300E+01  0.50400000000E-02 0. -1.
          1   -1    0    0    0  501  0.00000000000E+00 -0.00000000000E+00 -0.58589926061E+02  0.58589926278E+02  0.50400000000E-02 0. -1.
          2    1    1    2    0  502 -0.17272979723E+02  0.11064385785E+02 -0.33129191922E+02  0.38965623634E+02  0.25500000000E-02 0.  1.
         -2    1    1    2  502    0  0.17272979723E+02 -0.11064385785E+02 -0.17876043584E+02  0.27208994874E+02  0.25500000000E-02 0.  1.
<mgrwt>
<rscale>  0 0.42160955E+02</rscale>
<asrwt>0</asrwt>
<pdfrwt beam="2">  1        1 0.90138346E-02 0.42160955E+02</pdfrwt>
<pdfrwt beam="1">  1       -1 0.11668757E-02 0.42160955E+02</pdfrwt>
<totfact> 0.72786400E+05</totfact>
</mgrwt>
</event>
<event>
 4    1  0.1893769E-002  0.6066332E+02  0.7818608E-02  0.1395069E+00
         -1   -1    0    0  501    0 -0.00000000000E+00  0.00000000000E+00  0.38821214457E+00  0.38824485933E+00  0.50400000000E-02 0.  1.
          1   -1    0    0    0  501  0.00000000000E+00 -0.00000000000E+00 -0.23697632096E+04  0.23697632096E+04  0.50400000000E-02 0.  1.
          2    1    1    2    0  502  0.26096127012E+02  0.15347438946E+02 -0.12573409277E+04  0.12577053551E+04  0.25500000000E-02 0. -1.
         -2    1    1    2  502    0 -0.26096127012E+02 -0.15347438946E+02 -0.11120340697E+04  0.11124460993E+04  0.25500000000E-02 0. -1.
<mgrwt>
<rscale>  0 0.60663321E+02</rscale>
<asrwt>0</asrwt>
<pdfrwt beam="2">  1        1 0.36456737E+00 0.60663321E+02</pdfrwt>
<pdfrwt beam="1">  1       -1 0.59729360E-04 0.60663321E+02</pdfrwt>
<totfact> 0.17096234E+05</totfact>
</mgrwt>
</event>
<event>
 4    1  0.1893769E-002  0.5590910E+02  0.7818608E-02  0.1415848E+00
          1   -1    0    0    0  501  0.00000000000E+00  0.00000000000E+00  0.11810509273E+03  0.11810509284E+03  0.50400000000E-02 0.  1.
         -1   -1    0    0  501    0 -0.00000000000E+00 -0.00000000000E+00 -0.66166212167E+01  0.66166231363E+01  0.50400000000E-02 0.  1.
          2    1    1    2    0  502 -0.24211232250E+02 -0.10734213431E+02  0.35785207631E+02  0.44519526017E+02  0.25500000000E-02 0. -1.
         -2    1    1    2  502    0  0.24211232250E+02  0.10734213431E+02  0.75703263884E+02  0.80202189959E+02  0.25500000000E-02 0. -1.
<mgrwt>
<rscale>  0 0.55909097E+02</rscale>
<asrwt>0</asrwt>
<pdfrwt beam="1">  1        1 0.18170014E-01 0.55909097E+02</pdfrwt>
<pdfrwt beam="2">  1       -1 0.10179419E-02 0.55909097E+02</pdfrwt>
<totfact> 0.38922358E+05</totfact>
</mgrwt>
</event>
<event>
 4    1  0.1893769E-002  0.6848794E+02  0.7818608E-02  0.1365312E+00
          1   -1    0    0    0  501  0.00000000000E+00  0.00000000000E+00  0.15205193012E+04  0.15205193012E+04  0.50400000000E-02 0. -1.
         -1   -1    0    0  501    0 -0.00000000000E+00 -0.00000000000E+00 -0.77120809819E+00  0.77122456672E+00  0.50400000000E-02 0. -1.
          2    1    1    2    0  502  0.21146880131E+02 -0.17464675300E+02  0.12153360100E+04  0.12156454346E+04  0.25500000000E-02 0. -1.
         -2    1    1    2  502    0 -0.21146880131E+02  0.17464675300E+02  0.30441208311E+03  0.30564509120E+03  0.25500000000E-02 0. -1.
<mgrwt>
<rscale>  0 0.68487936E+02</rscale>
<asrwt>0</asrwt>
<pdfrwt beam="1">  1        1 0.23392365E+00 0.68487936E+02</pdfrwt>
<pdfrwt beam="2">  1       -1 0.11864988E-03 0.68487936E+02</pdfrwt>
<totfact> 0.23073955E+05</totfact>
</mgrwt>
</event>
<event>
 4    1  0.1893769E-002  0.6869596E+02  0.7818608E-02  0.1364584E+00
          1   -1    0    0    0  501  0.00000000000E+00  0.00000000000E+00  0.73128056472E+02  0.73128056645E+02  0.50400000000E-02 0. -1.
         -1   -1    0    0  501    0 -0.00000000000E+00 -0.00000000000E+00 -0.16133120538E+02  0.16133121325E+02  0.50400000000E-02 0. -1.
          2    1    1    2    0  502 -0.20014594739E+02  0.27722737120E+02  0.32737788325E+02  0.47338113047E+02  0.25500000000E-02 0. -1.
         -2    1    1    2  502    0  0.20014594739E+02 -0.27722737120E+02  0.24257147608E+02  0.41923064923E+02  0.25500000000E-02 0. -1.
<mgrwt>
<rscale>  0 0.68695962E+02</rscale>
<asrwt>0</asrwt>
<pdfrwt beam="1">  1        1 0.11250470E-01 0.68695962E+02</pdfrwt>
<pdfrwt beam="2">  1       -1 0.24820187E-02 0.68695962E+02</pdfrwt>
<totfact> 0.21323841E+05</totfact>
</mgrwt>
</event>
<event>
 4    1  0.1893769E-002  0.6166440E+02  0.7818608E-02  0.1390977E+00
         -1   -1    0    0  501    0 -0.00000000000E+00  0.00000000000E+00  0.15470813422E+02  0.15470814243E+02  0.50400000000E-02 0. -1.
          1   -1    0    0    0  501  0.00000000000E+00 -0.00000000000E+00 -0.61446311851E+02  0.61446312058E+02  0.50400000000E-02 0. -1.
          2    1    1    2    0  502 -0.27690933800E+01  0.28502998215E+02 -0.87364923342E+01  0.29940191887E+02  0.25500000000E-02 0. -1.
         -2    1    1    2  502    0  0.27690933800E+01 -0.28502998215E+02 -0.37239006095E+02  0.46976934414E+02  0.25500000000E-02 0. -1.
<mgrwt>
<rscale>  0 0.61664397E+02</rscale>
<asrwt>0</asrwt>
<pdfrwt beam="2">  1        1 0.94532787E-02 0.61664397E+02</pdfrwt>
<pdfrwt beam="1">  1       -1 0.23801253E-02 0.61664397E+02</pdfrwt>
<totfact> 0.27724034E+05</totfact>
</mgrwt>
</event>
<event>
 4    1  0.1893769E-002  0.8841338E+02  0.7818608E-02  0.1306740E+00
          1   -1    0    0    0  501  0.00000000000E+00  0.00000000000E+00  0.33086778440E+02  0.33086778823E+02  0.50400000000E-02 0.  1.
         -1   -1    0    0  501    0 -0.00000000000E+00 -0.00000000000E+00 -0.59063818252E+02  0.59063818467E+02  0.50400000000E-02 0.  1.
          2    1    1    2    0  502  0.78942209194E+01 -0.27799257973E+02  0.21878700191E+02  0.36246310106E+02  0.25500000000E-02 0.  1.
         -2    1    1    2  502    0 -0.78942209194E+01  0.27799257973E+02 -0.47855740003E+02  0.55904287184E+02  0.25500000000E-02 0.  1.
<mgrwt>
<rscale>  0 0.88413381E+02</rscale>
<asrwt>0</asrwt>
<pdfrwt beam="1">  1        1 0.50902737E-02 0.88413381E+02</pdfrwt>
<pdfrwt beam="2">  1       -1 0.90867413E-02 0.88413381E+02</pdfrwt>
<totfact> 0.96100341E+04</totfact>
</mgrwt>
</event>
<event>
 4    1  0.1893769E-002  0.4530350E+02  0.7818608E-02  0.1472456E+00
          1   -1    0    0    0  501  0.00000000000E+00  0.00000000000E+00  0.39914474278E+03  0.39914474281E+03  0.50400000000E-02 0.  1.
         -1   -1    0    0  501    0 -0.00000000000E+00 -0.00000000000E+00 -0.12854980169E+01  0.12855078969E+01  0.50400000000E-02 0.  1.
          2    1    1    2    0  502 -0.92764973495E+01  0.20127698334E+02  0.24031587624E+03  0.24133565427E+03  0.25500000000E-02 0. -1.
         -2    1    1    2  502    0  0.92764973495E+01 -0.20127698334E+02  0.15754336852E+03  0.15909459643E+03  0.25500000000E-02 0. -1.
<mgrwt>
<rscale>  0 0.45303499E+02</rscale>
<asrwt>0</asrwt>
<pdfrwt beam="1">  1        1 0.61406871E-01 0.45303499E+02</pdfrwt>
<pdfrwt beam="2">  1       -1 0.19776973E-03 0.45303499E+02</pdfrwt>
<totfact> 0.80731009E+05</totfact>
</mgrwt>
</event>
<event>
 4    1  0.1893769E-002  0.7066277E+02  0.7818608E-02  0.1357854E+00
          1   -1    0    0    0  501  0.00000000000E+00  0.00000000000E+00  0.14684919351E+02  0.14684920216E+02  0.50400000000E-02 0.  1.
         -1   -1    0    0  501    0 -0.00000000000E+00 -0.00000000000E+00 -0.85006032899E+02  0.85006033048E+02  0.50400000000E-02 0.  1.
          2    1    1    2    0  502 -0.34094963116E+02  0.25022496268E+01 -0.22575233486E+02  0.40967901296E+02  0.25500000000E-02 0.  1.
         -2    1    1    2  502    0  0.34094963116E+02 -0.25022496268E+01 -0.47745880062E+02  0.58723051968E+02  0.25500000000E-02 0.  1.
<mgrwt>
<rscale>  0 0.70662771E+02</rscale>
<asrwt>0</asrwt>
<pdfrwt beam="1">  1        1 0.22592185E-02 0.70662771E+02</pdfrwt>
<pdfrwt beam="2">  1       -1 0.13077851E-01 0.70662771E+02</pdfrwt>
<totfact> 0.16051797E+05</totfact>
</mgrwt>
</event>
<event>
 4    1  0.1893769E-002  0.6726210E+02  0.7818608E-02  0.1369659E+00
          1   -1    0    0    0  501  0.00000000000E+00  0.00000000000E+00  0.36134504159E+03  0.36134504162E+03  0.50400000000E-02 0. -1.
         -1   -1    0    0  501    0 -0.00000000000E+00 -0.00000000000E+00 -0.31301014112E+01  0.31301054689E+01  0.50400000000E-02 0. -1.
          2    1    1    2    0  502 -0.33406427489E+02 -0.12543506631E+01  0.15920916476E+03  0.16268104051E+03  0.25500000000E-02 0. -1.
         -2    1    1    2  502    0  0.33406427489E+02  0.12543506631E+01  0.19900577542E+03  0.20179410658E+03  0.25500000000E-02 0. -1.
<mgrwt>
<rscale>  0 0.67262095E+02</rscale>
<asrwt>0</asrwt>
<pdfrwt beam="1">  1        1 0.55591529E-01 0.67262095E+02</pdfrwt>
<pdfrwt beam="2">  1       -1 0.48155452E-03 0.67262095E+02</pdfrwt>
<totfact> 0.29385788E+05</totfact>
</mgrwt>
</event>
<event>
 4    1  0.1893769E-002  0.7324134E+02  0.7818608E-02  0.1349405E+00
         -1   -1    0    0  501    0 -0.00000000000E+00  0.00000000000E+00  0.22752331562E+01  0.22752387384E+01  0.50400000000E-02 0.  1.
          1   -1    0    0    0  501  0.00000000000E+00 -0.00000000000E+00 -0.58942163883E+03  0.58942163885E+03  0.50400000000E-02 0.  1.
          2    1    1    2    0  502 -0.73022181081E+01  0.29217498557E+02 -0.12525454486E+03  0.12882424316E+03  0.25500000000E-02 0. -1.
         -2    1    1    2  502    0  0.73022181081E+01 -0.29217498557E+02 -0.46189186081E+03  0.46287263443E+03  0.25500000000E-02 0. -1.
<mgrwt>
<rscale>  0 0.73241336E+02</rscale>
<asrwt>0</asrwt>
<pdfrwt beam="2">  1        1 0.90680131E-01 0.73241336E+02</pdfrwt>
<pdfrwt beam="1">  1       -1 0.35003677E-03 0.73241336E+02</pdfrwt>
<totfact> 0.25095797E+05</totfact>
</mgrwt>
</event>
<event>
 4    1  0.1893769E-002  0.9256822E+02  0.7818608E-02  0.1296749E+00
          1   -1    0    0    0  501  0.00000000000E+00  0.00000000000E+00  0.11541482087E+04  0.11541482087E+04  0.50400000000E-02 0. -1.
         -1   -1    0    0  501    0 -0.00000000000E+00 -0.00000000000E+00 -0.18561003170E+01  0.18561071597E+01  0.50400000000E-02 0. -1.
          2    1    1    2    0  502 -0.34127908365E+02  0.27050833242E+02  0.38037405135E+03  0.38285882601E+03  0.25500000000E-02 0.  1.
         -2    1    1    2  502    0  0.34127908365E+02 -0.27050833242E+02  0.77191805702E+03  0.77314548984E+03  0.25500000000E-02 0.  1.
<mgrwt>
<rscale>  0 0.92568220E+02</rscale>
<asrwt>0</asrwt>
<pdfrwt beam="1">  1        1 0.17756101E+00 0.92568220E+02</pdfrwt>
<pdfrwt beam="2">  1       -1 0.28555483E-03 0.92568220E+02</pdfrwt>
<totfact> 0.12444419E+05</totfact>
</mgrwt>
</event>
<event>
 4    1  0.1893769E-002  0.5223152E+02  0.7818608E-02  0.1433664E+00
          1   -1    0    0    0  501  0.00000000000E+00  0.00000000000E+00  0.13084118535E+03  0.13084118545E+03  0.50400000000E-02 0. -1.
         -1   -1    0    0  501    0 -0.00000000000E+00 -0.00000000000E+00 -0.52126772022E+01  0.52126796387E+01  0.50400000000E-02 0. -1.
          2    1    1    2    0  502  0.66000544087E+01  0.25267008084E+02  0.63400276270E+02  0.68568049800E+02  0.25500000000E-02 0.  1.
         -2    1    1    2  502    0 -0.66000544087E+01 -0.25267008084E+02  0.62228231876E+02  0.67485815284E+02  0.25500000000E-02 0.  1.
<mgrwt>
<rscale>  0 0.52231524E+02</rscale>
<asrwt>0</asrwt>
<pdfrwt beam="1">  1        1 0.20129411E-01 0.52231524E+02</pdfrwt>
<pdfrwt beam="2">  1       -1 0.80195064E-03 0.52231524E+02</pdfrwt>
<totfact> 0.46991330E+05</totfact>
</mgrwt>
</event>
<event>
 4    1  0.1893769E-002  0.4304815E+02  0.7818608E-02  0.1486908E+00
         -1   -1    0    0  501    0 -0.00000000000E+00  0.00000000000E+00  0.98090609195E+01  0.98090622143E+01  0.50400000000E-02 0. -1.
          1   -1    0    0    0  501  0.00000000000E+00 -0.00000000000E+00 -0.47230399096E+02  0.47230399365E+02  0.50400000000E-02 0. -1.
          2    1    1    2    0  502 -0.15792443790E+02  0.14576943032E+02 -0.20276964382E+02  0.29547315276E+02  0.25500000000E-02 0.  1.
         -2    1    1    2  502    0  0.15792443790E+02 -0.14576943032E+02 -0.17144373795E+02  0.27492146303E+02  0.25500000000E-02 0.  1.
<mgrwt>
<rscale>  0 0.43048155E+02</rscale>
<asrwt>0</asrwt>
<pdfrwt beam="2">  1        1 0.72662152E-02 0.43048155E+02</pdfrwt>
<pdfrwt beam="1">  1       -1 0.15090864E-02 0.43048155E+02</pdfrwt>
<totfact> 0.67721597E+05</totfact>
</mgrwt>
</event>
<event>
 4    1  0.1893769E-002  0.6224064E+02  0.7818608E-02  0.1388662E+00
          1   -1    0    0    0  501  0.00000000000E+00  0.00000000000E+00  0.11144919745E+04  0.11144919745E+04  0.50400000000E-02 0. -1.
         -1   -1    0    0  501    0 -0.00000000000E+00 -0.00000000000E+00 -0.86897554797E+00  0.86899016368E+00  0.50400000000E-02 0. -1.
          2    1    1    2    0  502 -0.27377629980E+02  0.90117117691E+01  0.34650445003E+03  0.34770113527E+03  0.25500000000E-02 0. -1.
         -2    1    1    2  502    0  0.27377629980E+02 -0.90117117691E+01  0.76711854890E+03  0.76765982938E+03  0.25500000000E-02 0. -1.
<mgrwt>
<rscale>  0 0.62240644E+02</rscale>
<asrwt>0</asrwt>
<pdfrwt beam="1">  1        1 0.17145968E+00 0.62240644E+02</pdfrwt>
<pdfrwt beam="2">  1       -1 0.13369016E-03 0.62240644E+02</pdfrwt>
<totfact> 0.35367992E+05</totfact>
</mgrwt>
</event>
<event>
 4    1  0.1893769E-002  0.5391639E+02  0.7818608E-02  0.1425294E+00
          1   -1    0    0    0  501  0.00000000000E+00  0.00000000000E+00  0.36696856776E+02  0.36696857122E+02  0.50400000000E-02 0. -1.
         -1   -1    0    0  501    0 -0.00000000000E+00 -0.00000000000E+00 -0.19803993515E+02  0.19803994156E+02  0.50400000000E-02 0. -1.
          2    1    1    2    0  502  0.18740734916E+02 -0.15943036528E+02 -0.30974500354E+01  0.24798987120E+02  0.25500000000E-02 0.  1.
         -2    1    1    2  502    0 -0.18740734916E+02  0.15943036528E+02  0.19990313296E+02  0.31701864158E+02  0.25500000000E-02 0.  1.
<mgrwt>
<rscale>  0 0.53916392E+02</rscale>
<asrwt>0</asrwt>
<pdfrwt beam="1">  1        1 0.56456703E-02 0.53916392E+02</pdfrwt>
<pdfrwt beam="2">  1       -1 0.30467683E-02 0.53916392E+02</pdfrwt>
<totfact> 0.37249494E+05</totfact>
</mgrwt>
</event>
<event>
 4    1  0.1893769E-002  0.5156374E+02  0.7818608E-02  0.1437085E+00
         -1   -1    0    0  501    0 -0.00000000000E+00  0.00000000000E+00  0.44512173398E+01  0.44512201931E+01  0.50400000000E-02 0. -1.
          1   -1    0    0    0  501  0.00000000000E+00 -0.00000000000E+00 -0.14933097691E+03  0.14933097699E+03  0.50400000000E-02 0. -1.
          2    1    1    2    0  502  0.20992373362E+02  0.14845771584E+02 -0.66759124951E+02  0.71539202149E+02  0.25500000000E-02 0.  1.
         -2    1    1    2  502    0 -0.20992373362E+02 -0.14845771584E+02 -0.78120634614E+02  0.82242995035E+02  0.25500000000E-02 0.  1.
<mgrwt>
<rscale>  0 0.51563742E+02</rscale>
<asrwt>0</asrwt>
<pdfrwt beam="2">  1        1 0.22973993E-01 0.51563742E+02</pdfrwt>
<pdfrwt beam="1">  1       -1 0.68480301E-03 0.51563742E+02</pdfrwt>
<totfact> 0.49554034E+05</totfact>
</mgrwt>
</event>
<event>
 4    1  0.1893769E-002  0.4197216E+02  0.7818608E-02  0.1494180E+00
          1   -1    0    0    0  501  0.00000000000E+00  0.00000000000E+00  0.19901107200E+02  0.19901107838E+02  0.50400000000E-02 0. -1.
         -1   -1    0    0  501    0 -0.00000000000E+00 -0.00000000000E+00 -0.22130203865E+02  0.22130204439E+02  0.50400000000E-02 0. -1.
          2    1    1    2    0  502 -0.18797455444E+02 -0.93305772547E+01 -0.10068078216E+01  0.21009942208E+02  0.25500000000E-02 0.  1.
         -2    1    1    2  502    0  0.18797455444E+02  0.93305772547E+01 -0.12222888434E+01  0.21021370069E+02  0.25500000000E-02 0.  1.
<mgrwt>
<rscale>  0 0.41972161E+02</rscale>
<asrwt>0</asrwt>
<pdfrwt beam="1">  1        1 0.30617089E-02 0.41972161E+02</pdfrwt>
<pdfrwt beam="2">  1       -1 0.34046468E-02 0.41972161E+02</pdfrwt>
<totfact> 0.67331370E+05</totfact>
</mgrwt>
</event>
<event>
 4    1  0.1893769E-002  0.8293982E+02  0.7818608E-02  0.1320910E+00
         -1   -1    0    0  501    0 -0.00000000000E+00  0.00000000000E+00  0.13576650723E+02  0.13576651659E+02  0.50400000000E-02 0. -1.
          1   -1    0    0    0  501  0.00000000000E+00 -0.00000000000E+00 -0.12666993404E+03  0.12666993414E+03  0.50400000000E-02 0. -1.
          2    1    1    2    0  502  0.16399232075E+02  0.35789650987E+02 -0.78588637701E+02  0.87897712784E+02  0.25500000000E-02 0.  1.
         -2    1    1    2  502    0 -0.16399232075E+02 -0.35789650987E+02 -0.34504645617E+02  0.52348873017E+02  0.25500000000E-02 0.  1.
<mgrwt>
<rscale>  0 0.82939822E+02</rscale>
<asrwt>0</asrwt>
<pdfrwt beam="2">  1        1 0.19487681E-01 0.82939822E+02</pdfrwt>
<pdfrwt beam="1">  1       -1 0.20887157E-02 0.82939822E+02</pdfrwt>
<totfact> 0.14033388E+05</totfact>
</mgrwt>
</event>
<event>
 4    1  0.1893769E-002  0.6164754E+02  0.7818608E-02  0.1391045E+00
         -1   -1    0    0  501    0 -0.00000000000E+00  0.00000000000E+00  0.63774297889E+00  0.63776289381E+00  0.50400000000E-02 0. -1.
          1   -1    0    0    0  501  0.00000000000E+00 -0.00000000000E+00 -0.14897691612E+04  0.14897691612E+04  0.50400000000E-02 0. -1.
          2    1    1    2    0  502  0.16550735580E+01  0.25792985413E+02 -0.11506170072E+04  0.11509072572E+04  0.25500000000E-02 0. -1.
         -2    1    1    2  502    0 -0.16550735580E+01 -0.25792985413E+02 -0.33851441104E+03  0.33949966695E+03  0.25500000000E-02 0. -1.
<mgrwt>
<rscale>  0 0.61647536E+02</rscale>
<asrwt>0</asrwt>
<pdfrwt beam="2">  1        1 0.22919247E+00 0.61647536E+02</pdfrwt>
<pdfrwt beam="1">  1       -1 0.98117029E-04 0.61647536E+02</pdfrwt>
<totfact> 0.30716162E+05</totfact>
</mgrwt>
</event>
<event>
 4    1  0.1893769E-002  0.1106412E+03  0.7818608E-02  0.1259387E+00
         -1   -1    0    0  501    0 -0.00000000000E+00  0.00000000000E+00  0.24637457826E+02  0.24637458342E+02  0.50400000000E-02 0.  1.
          1   -1    0    0    0  501  0.00000000000E+00 -0.00000000000E+00 -0.12421601084E+03  0.12421601095E+03  0.50400000000E-02 0.  1.
          2    1    1    2    0  502  0.19729835841E+02  0.19508234409E+02  0.14599494606E+02  0.31352557812E+02  0.25500000000E-02 0.  1.
         -2    1    1    2  502    0 -0.19729835841E+02 -0.19508234409E+02 -0.11417804762E+03  0.11750091148E+03  0.25500000000E-02 0.  1.
<mgrwt>
<rscale>  0 0.11064116E+03</rscale>
<asrwt>0</asrwt>
<pdfrwt beam="2">  1        1 0.19110155E-01 0.11064116E+03</pdfrwt>
<pdfrwt beam="1">  1       -1 0.37903782E-02 0.11064116E+03</pdfrwt>
<totfact> 0.63738012E+04</totfact>
</mgrwt>
</event>
<event>
 4    1  0.1893769E-002  0.6451300E+02  0.7818608E-02  0.1379813E+00
         -1   -1    0    0  501    0 -0.00000000000E+00  0.00000000000E+00  0.59277697176E+03  0.59277697178E+03  0.50400000000E-02 0. -1.
          1   -1    0    0    0  501  0.00000000000E+00 -0.00000000000E+00 -0.17552631862E+01  0.17552704220E+01  0.50400000000E-02 0. -1.
          2    1    1    2    0  502  0.30988447250E+02  0.76184123468E+01  0.33889092931E+03  0.34039004986E+03  0.25500000000E-02 0.  1.
         -2    1    1    2  502    0 -0.30988447250E+02 -0.76184123468E+01  0.25213077927E+03  0.25414219235E+03  0.25500000000E-02 0.  1.
<mgrwt>
<rscale>  0 0.64512999E+02</rscale>
<asrwt>0</asrwt>
<pdfrwt beam="2">  1        1 0.27004084E-03 0.64512999E+02</pdfrwt>
<pdfrwt beam="1">  1       -1 0.91196527E-01 0.64512999E+02</pdfrwt>
<totfact> 0.10270580E+05</totfact>
</mgrwt>
</event>
<event>
 4    1  0.1893769E-002  0.4685930E+02  0.7818608E-02  0.1463057E+00
         -1   -1    0    0  501    0 -0.00000000000E+00  0.00000000000E+00  0.16982330735E+02  0.16982331483E+02  0.50400000000E-02 0.  1.
          1   -1    0    0    0  501  0.00000000000E+00 -0.00000000000E+00 -0.32324688875E+02  0.32324689268E+02  0.50400000000E-02 0.  1.
          2    1    1    2    0  502 -0.15395562778E+02  0.16228664214E+02 -0.33900161001E+00  0.22372032184E+02  0.25500000000E-02 0. -1.
         -2    1    1    2  502    0  0.15395562778E+02 -0.16228664214E+02 -0.15003356530E+02  0.26934988567E+02  0.25500000000E-02 0. -1.
<mgrwt>
<rscale>  0 0.46859304E+02</rscale>
<asrwt>0</asrwt>
<pdfrwt beam="2">  1        1 0.49730291E-02 0.46859304E+02</pdfrwt>
<pdfrwt beam="1">  1       -1 0.26126664E-02 0.46859304E+02</pdfrwt>
<totfact> 0.52870062E+05</totfact>
</mgrwt>
</event>
<event>
 4    1  0.1893769E-002  0.4681760E+02  0.7818608E-02  0.1463304E+00
          1   -1    0    0    0  501  0.00000000000E+00  0.00000000000E+00  0.36144254020E+03  0.36144254023E+03  0.50400000000E-02 0. -1.
         -1   -1    0    0  501    0 -0.00000000000E+00 -0.00000000000E+00 -0.15160647659E+01  0.15160731434E+01  0.50400000000E-02 0. -1.
          2    1    1    2    0  502 -0.61313682314E+01 -0.22571232273E+02  0.18738964674E+03  0.18884367587E+03  0.25500000000E-02 0.  1.
         -2    1    1    2  502    0  0.61313682314E+01  0.22571232273E+02  0.17253682869E+03  0.17411493751E+03  0.25500000000E-02 0.  1.
<mgrwt>
<rscale>  0 0.46817596E+02</rscale>
<asrwt>0</asrwt>
<pdfrwt beam="1">  1        1 0.55606628E-01 0.46817596E+02</pdfrwt>
<pdfrwt beam="2">  1       -1 0.23324103E-03 0.46817596E+02</pdfrwt>
<totfact> 0.73314101E+05</totfact>
</mgrwt>
</event>
<event>
 4    1  0.1893769E-002  0.4962828E+02  0.7818608E-02  0.1447357E+00
         -1   -1    0    0  501    0 -0.00000000000E+00  0.00000000000E+00  0.10006943690E+01  0.10007070609E+01  0.50400000000E-02 0.  1.
          1   -1    0    0    0  501  0.00000000000E+00 -0.00000000000E+00 -0.61531043361E+03  0.61531043363E+03  0.50400000000E-02 0.  1.
          2    1    1    2    0  502  0.18946925634E+02  0.13103328674E+02 -0.42168752676E+03  0.42231629550E+03  0.25500000000E-02 0.  1.
         -2    1    1    2  502    0 -0.18946925634E+02 -0.13103328674E+02 -0.19262221248E+03  0.19399484519E+03  0.25500000000E-02 0.  1.
<mgrwt>
<rscale>  0 0.49628282E+02</rscale>
<asrwt>0</asrwt>
<pdfrwt beam="2">  1        1 0.94662842E-01 0.49628282E+02</pdfrwt>
<pdfrwt beam="1">  1       -1 0.15395445E-03 0.49628282E+02</pdfrwt>
<totfact> 0.67458173E+05</totfact>
</mgrwt>
</event>
<event>
 4    1  0.1893769E-002  0.5028745E+02  0.7818608E-02  0.1443797E+00
          1   -1    0    0    0  501  0.00000000000E+00  0.00000000000E+00  0.47689514094E+03  0.47689514096E+03  0.50400000000E-02 0.  1.
         -1   -1    0    0  501    0 -0.00000000000E+00 -0.00000000000E+00 -0.13256678884E+01  0.13256774691E+01  0.50400000000E-02 0.  1.
          2    1    1    2    0  502 -0.70380500850E+01 -0.23967657601E+02  0.21051297392E+03  0.21198984635E+03  0.25500000000E-02 0. -1.
         -2    1    1    2  502    0  0.70380500850E+01  0.23967657601E+02  0.26505649913E+03  0.26623097208E+03  0.25500000000E-02 0. -1.
<mgrwt>
<rscale>  0 0.50287449E+02</rscale>
<asrwt>0</asrwt>
<pdfrwt beam="1">  1        1 0.73368525E-01 0.50287449E+02</pdfrwt>
<pdfrwt beam="2">  1       -1 0.20394953E-03 0.50287449E+02</pdfrwt>
<totfact> 0.63895274E+05</totfact>
</mgrwt>
</event>
<event>
 4    1  0.1893769E-002  0.6263104E+02  0.7818608E-02  0.1387111E+00
         -1   -1    0    0  501    0 -0.00000000000E+00  0.00000000000E+00  0.15634376025E+01  0.15634457261E+01  0.50400000000E-02 0.  1.
          1   -1    0    0    0  501  0.00000000000E+00 -0.00000000000E+00 -0.62724548697E+03  0.62724548699E+03  0.50400000000E-02 0.  1.
          2    1    1    2    0  502 -0.29379462328E+02  0.79081702028E+01 -0.38727840103E+03  0.38847168736E+03  0.25500000000E-02 0. -1.
         -2    1    1    2  502    0  0.29379462328E+02 -0.79081702028E+01 -0.23840364834E+03  0.24033724537E+03  0.25500000000E-02 0. -1.
<mgrwt>
<rscale>  0 0.62631038E+02</rscale>
<asrwt>0</asrwt>
<pdfrwt beam="2">  1        1 0.96499105E-01 0.62631038E+02</pdfrwt>
<pdfrwt beam="1">  1       -1 0.24052999E-03 0.62631038E+02</pdfrwt>
<totfact> 0.37624908E+05</totfact>
</mgrwt>
</event>
<event>
 4    1  0.1893769E-002  0.9039721E+02  0.7818608E-02  0.1301893E+00
          1   -1    0    0    0  501  0.00000000000E+00  0.00000000000E+00  0.79440485077E+01  0.79440501065E+01  0.50400000000E-02 0. -1.
         -1   -1    0    0  501    0 -0.00000000000E+00 -0.00000000000E+00 -0.25716278070E+03  0.25716278075E+03  0.50400000000E-02 0. -1.
          2    1    1    2    0  502 -0.34618983888E+01 -0.43525128188E+02 -0.90346794015E+02  0.10034423112E+03  0.25500000000E-02 0.  1.
         -2    1    1    2  502    0  0.34618983888E+01  0.43525128188E+02 -0.15887193818E+03  0.16476259974E+03  0.25500000000E-02 0.  1.
<mgrwt>
<rscale>  0 0.90397208E+02</rscale>
<asrwt>0</asrwt>
<pdfrwt beam="1">  1        1 0.12221616E-02 0.90397208E+02</pdfrwt>
<pdfrwt beam="2">  1       -1 0.39563499E-01 0.90397208E+02</pdfrwt>
<totfact> 0.65594709E+04</totfact>
</mgrwt>
</event>
<event>
 4    1  0.1893769E-002  0.6232520E+02  0.7818608E-02  0.1388325E+00
         -1   -1    0    0  501    0 -0.00000000000E+00  0.00000000000E+00  0.12575194229E+02  0.12575195239E+02  0.50400000000E-02 0. -1.
          1   -1    0    0    0  501  0.00000000000E+00 -0.00000000000E+00 -0.77224074526E+02  0.77224074690E+02  0.50400000000E-02 0. -1.
          2    1    1    2    0  502  0.96205721583E+01 -0.25060589617E+02 -0.55129416097E+02  0.61317543055E+02  0.25500000000E-02 0. -1.
         -2    1    1    2  502    0 -0.96205721583E+01  0.25060589617E+02 -0.95194641992E+01  0.28481726874E+02  0.25500000000E-02 0. -1.
<mgrwt>
<rscale>  0 0.62325205E+02</rscale>
<asrwt>0</asrwt>
<pdfrwt beam="2">  1        1 0.11880627E-01 0.62325205E+02</pdfrwt>
<pdfrwt beam="1">  1       -1 0.19346454E-02 0.62325205E+02</pdfrwt>
<totfact> 0.27736882E+05</totfact>
</mgrwt>
</event>
<event>
 4    1  0.1893769E-002  0.6059435E+02  0.7818608E-02  0.1395354E+00
         -1   -1    0    0  501    0 -0.00000000000E+00  0.00000000000E+00  0.51096386707E+01  0.51096411564E+01  0.50400000000E-02 0. -1.
          1   -1    0    0    0  501  0.00000000000E+00 -0.00000000000E+00 -0.17964449862E+03  0.17964449869E+03  0.50400000000E-02 0. -1.
          2    1    1    2    0  502  0.17976166566E+02  0.10948783660E+02 -0.15371257953E+03  0.15514694821E+03  0.25500000000E-02 0. -1.
         -2    1    1    2  502    0 -0.17976166566E+02 -0.10948783660E+02 -0.20822280421E+02  0.29607191634E+02  0.25500000000E-02 0. -1.
<mgrwt>
<rscale>  0 0.60594347E+02</rscale>
<asrwt>0</asrwt>
<pdfrwt beam="2">  1        1 0.27637611E-01 0.60594347E+02</pdfrwt>
<pdfrwt beam="1">  1       -1 0.78609859E-03 0.60594347E+02</pdfrwt>
<totfact> 0.33900650E+05</totfact>
</mgrwt>
</event>
<event>
 4    1  0.1893769E-002  0.4157708E+02  0.7818608E-02  0.1496916E+00
         -1   -1    0    0  501    0 -0.00000000000E+00  0.00000000000E+00  0.20175513936E+01  0.20175576888E+01  0.50400000000E-02 0. -1.
          1   -1    0    0    0  501  0.00000000000E+00 -0.00000000000E+00 -0.21420159617E+03  0.21420159623E+03  0.50400000000E-02 0. -1.
          2    1    1    2    0  502  0.60062246317E+01 -0.19745880751E+02 -0.93154658581E+02  0.95413651868E+02  0.25500000000E-02 0.  1.
         -2    1    1    2  502    0 -0.60062246317E+01  0.19745880751E+02 -0.11902938619E+03  0.12080550205E+03  0.25500000000E-02 0.  1.
<mgrwt>
<rscale>  0 0.41577081E+02</rscale>
<asrwt>0</asrwt>
<pdfrwt beam="2">  1        1 0.32954074E-01 0.41577081E+02</pdfrwt>
<pdfrwt beam="1">  1       -1 0.31039318E-03 0.41577081E+02</pdfrwt>
<totfact> 0.89777176E+05</totfact>
</mgrwt>
</event>
<event>
 4    1  0.1893769E-002  0.4437780E+02  0.7818608E-02  0.1478264E+00
         -1   -1    0    0  501    0 -0.00000000000E+00  0.00000000000E+00  0.11622760353E+03  0.11622760364E+03  0.50400000000E-02 0.  1.
          1   -1    0    0    0  501  0.00000000000E+00 -0.00000000000E+00 -0.42360597094E+01  0.42360627077E+01  0.50400000000E-02 0.  1.
          2    1    1    2    0  502 -0.15201811919E+02 -0.14762071172E+02  0.73864835510E+02  0.76844178455E+02  0.25500000000E-02 0. -1.
         -2    1    1    2  502    0  0.15201811919E+02  0.14762071172E+02  0.38126708311E+02  0.43619487893E+02  0.25500000000E-02 0. -1.
<mgrwt>
<rscale>  0 0.44377799E+02</rscale>
<asrwt>0</asrwt>
<pdfrwt beam="2">  1        1 0.65170168E-03 0.44377799E+02</pdfrwt>
<pdfrwt beam="1">  1       -1 0.17881172E-01 0.44377799E+02</pdfrwt>
<totfact> 0.48619765E+05</totfact>
</mgrwt>
</event>
<event>
 4    1  0.1893769E-002  0.4697980E+02  0.7818608E-02  0.1462348E+00
          1   -1    0    0    0  501  0.00000000000E+00  0.00000000000E+00  0.22162369007E+04  0.22162369007E+04  0.50400000000E-02 0.  1.
         -1   -1    0    0  501    0 -0.00000000000E+00 -0.00000000000E+00 -0.24894399085E+00  0.24899500433E+00  0.50400000000E-02 0.  1.
          2    1    1    2    0  502  0.15678234563E+02 -0.17443865880E+02  0.10468441454E+04  0.10471068523E+04  0.25500000000E-02 0. -1.
         -2    1    1    2  502    0 -0.15678234563E+02  0.17443865880E+02  0.11691438113E+04  0.11693790434E+04  0.25500000000E-02 0. -1.
<mgrwt>
<rscale>  0 0.46979800E+02</rscale>
<asrwt>0</asrwt>
<pdfrwt beam="1">  1        1 0.34097827E+00 0.46979800E+02</pdfrwt>
<pdfrwt beam="2">  1       -1 0.38300895E-04 0.46979800E+02</pdfrwt>
<totfact> 0.37212826E+05</totfact>
</mgrwt>
</event>
<event>
 4    1  0.1893769E-002  0.1017838E+03  0.7818608E-02  0.1276589E+00
         -1   -1    0    0  501    0 -0.00000000000E+00  0.00000000000E+00  0.43761943335E+02  0.43761943626E+02  0.50400000000E-02 0. -1.
          1   -1    0    0    0  501  0.00000000000E+00 -0.00000000000E+00 -0.59183476145E+02  0.59183476360E+02  0.50400000000E-02 0. -1.
          2    1    1    2    0  502 -0.21246795535E+02 -0.14155014725E+01 -0.54461177322E+02  0.58476061826E+02  0.25500000000E-02 0. -1.
         -2    1    1    2  502    0  0.21246795535E+02  0.14155014725E+01  0.39039644512E+02  0.44469358159E+02  0.25500000000E-02 0. -1.
<mgrwt>
<rscale>  0 0.10178377E+03</rscale>
<asrwt>0</asrwt>
<pdfrwt beam="2">  1        1 0.91051502E-02 0.10178377E+03</pdfrwt>
<pdfrwt beam="1">  1       -1 0.67326067E-02 0.10178377E+03</pdfrwt>
<totfact> 0.70662715E+04</totfact>
</mgrwt>
</event>
<event>
 4    1  0.1893769E-002  0.4509458E+02  0.7818608E-02  0.1473752E+00
          1   -1    0    0    0  501  0.00000000000E+00  0.00000000000E+00  0.24324229569E+03  0.24324229574E+03  0.50400000000E-02 0. -1.
         -1   -1    0    0  501    0 -0.00000000000E+00 -0.00000000000E+00 -0.20900129129E+01  0.20900189898E+01  0.50400000000E-02 0. -1.
          2    1    1    2    0  502 -0.83835615153E+01  0.19690297823E+02  0.15919464899E+03  0.16062667340E+03  0.25500000000E-02 0.  1.
         -2    1    1    2  502    0  0.83835615153E+01 -0.19690297823E+02  0.81957633786E+02  0.84705641337E+02  0.25500000000E-02 0.  1.
<mgrwt>
<rscale>  0 0.45094580E+02</rscale>
<asrwt>0</asrwt>
<pdfrwt beam="1">  1        1 0.37421880E-01 0.45094580E+02</pdfrwt>
<pdfrwt beam="2">  1       -1 0.32154102E-03 0.45094580E+02</pdfrwt>
<totfact> 0.75165347E+05</totfact>
</mgrwt>
</event>
<event>
 4    1  0.1893769E-002  0.5140187E+02  0.7818608E-02  0.1437924E+00
          1   -1    0    0    0  501  0.00000000000E+00  0.00000000000E+00  0.12987011883E+04  0.12987011883E+04  0.50400000000E-02 0. -1.
         -1   -1    0    0  501    0 -0.00000000000E+00 -0.00000000000E+00 -0.50860181525E+00  0.50862678663E+00  0.50400000000E-02 0. -1.
          2    1    1    2    0  502  0.23952825388E+02  0.18882553540E+01  0.87969266592E+03  0.88002073261E+03  0.25500000000E-02 0. -1.
         -2    1    1    2  502    0 -0.23952825388E+02 -0.18882553540E+01  0.41849992057E+03  0.41918908248E+03  0.25500000000E-02 0. -1.
<mgrwt>
<rscale>  0 0.51401868E+02</rscale>
<asrwt>0</asrwt>
<pdfrwt beam="1">  1        1 0.19979837E+00 0.51401868E+02</pdfrwt>
<pdfrwt beam="2">  1       -1 0.78249066E-04 0.51401868E+02</pdfrwt>
<totfact> 0.53304298E+05</totfact>
</mgrwt>
</event>
<event>
 4    1  0.1893769E-002  0.6059546E+02  0.7818608E-02  0.1395350E+00
          1   -1    0    0    0  501  0.00000000000E+00  0.00000000000E+00  0.21369648774E+02  0.21369649368E+02  0.50400000000E-02 0.  1.
         -1   -1    0    0  501    0 -0.00000000000E+00 -0.00000000000E+00 -0.42955893083E+02  0.42955893379E+02  0.50400000000E-02 0.  1.
          2    1    1    2    0  502  0.81302185541E+01  0.26375499351E+02  0.24735800349E+01  0.27710756475E+02  0.25500000000E-02 0. -1.
         -2    1    1    2  502    0 -0.81302185541E+01 -0.26375499351E+02 -0.24059824344E+02  0.36614786272E+02  0.25500000000E-02 0. -1.
<mgrwt>
<rscale>  0 0.60595458E+02</rscale>
<asrwt>0</asrwt>
<pdfrwt beam="1">  1        1 0.32876383E-02 0.60595458E+02</pdfrwt>
<pdfrwt beam="2">  1       -1 0.66085990E-02 0.60595458E+02</pdfrwt>
<totfact> 0.25855412E+05</totfact>
</mgrwt>
</event>
<event>
 4    1  0.1893769E-002  0.4332702E+02  0.7818608E-02  0.1485064E+00
         -1   -1    0    0  501    0 -0.00000000000E+00  0.00000000000E+00  0.16612959388E+02  0.16612960152E+02  0.50400000000E-02 0.  1.
          1   -1    0    0    0  501  0.00000000000E+00 -0.00000000000E+00 -0.28249491026E+02  0.28249491476E+02  0.50400000000E-02 0.  1.
          2    1    1    2    0  502  0.15741854167E+02 -0.14807914705E+02 -0.42729433228E+01  0.22030396312E+02  0.25500000000E-02 0. -1.
         -2    1    1    2  502    0 -0.15741854167E+02  0.14807914705E+02 -0.73635883161E+01  0.22832055316E+02  0.25500000000E-02 0. -1.
<mgrwt>
<rscale>  0 0.43327020E+02</rscale>
<asrwt>0</asrwt>
<pdfrwt beam="2">  1        1 0.43460756E-02 0.43327020E+02</pdfrwt>
<pdfrwt beam="1">  1       -1 0.25558400E-02 0.43327020E+02</pdfrwt>
<totfact> 0.63835708E+05</totfact>
</mgrwt>
</event>
<event>
 4    1  0.1893769E-002  0.4658472E+02  0.7818608E-02  0.1464684E+00
          1   -1    0    0    0  501  0.00000000000E+00  0.00000000000E+00  0.58069467084E+00  0.58071654216E+00  0.50400000000E-02 0. -1.
         -1   -1    0    0  501    0 -0.00000000000E+00 -0.00000000000E+00 -0.93426669281E+03  0.93426669282E+03  0.50400000000E-02 0. -1.
          2    1    1    2    0  502  0.58324025936E+01 -0.19788243047E+02 -0.68385479548E+03  0.68416589567E+03  0.25500000000E-02 0.  1.
         -2    1    1    2  502    0 -0.58324025936E+01  0.19788243047E+02 -0.24983120265E+03  0.25068151370E+03  0.25500000000E-02 0.  1.
<mgrwt>
<rscale>  0 0.46584715E+02</rscale>
<asrwt>0</asrwt>
<pdfrwt beam="1">  1        1 0.89340073E-04 0.46584715E+02</pdfrwt>
<pdfrwt beam="2">  1       -1 0.14373214E+00 0.46584715E+02</pdfrwt>
<totfact> 0.15358093E+05</totfact>
</mgrwt>
</event>
<event>
 4    1  0.1893769E-002  0.5937080E+02  0.7818608E-02  0.1400491E+00
          1   -1    0    0    0  501  0.00000000000E+00  0.00000000000E+00  0.22269810852E+02  0.22269811422E+02  0.50400000000E-02 0. -1.
         -1   -1    0    0  501    0 -0.00000000000E+00 -0.00000000000E+00 -0.39570292269E+02  0.39570292590E+02  0.50400000000E-02 0. -1.
          2    1    1    2    0  502 -0.31419011008E+01  0.20368693579E+02 -0.30903947080E+02  0.37145782698E+02  0.25500000000E-02 0. -1.
         -2    1    1    2  502    0  0.31419011008E+01 -0.20368693579E+02  0.13603465663E+02  0.24694321314E+02  0.25500000000E-02 0. -1.
<mgrwt>
<rscale>  0 0.59370799E+02</rscale>
<asrwt>0</asrwt>
<pdfrwt beam="1">  1        1 0.34261248E-02 0.59370799E+02</pdfrwt>
<pdfrwt beam="2">  1       -1 0.60877373E-02 0.59370799E+02</pdfrwt>
<totfact> 0.27445153E+05</totfact>
</mgrwt>
</event>
<event>
 4    1  0.1893769E-002  0.4414941E+02  0.7818608E-02  0.1479723E+00
          1   -1    0    0    0  501  0.00000000000E+00  0.00000000000E+00  0.53570224337E+02  0.53570224574E+02  0.50400000000E-02 0. -1.
         -1   -1    0    0  501    0 -0.00000000000E+00 -0.00000000000E+00 -0.90963318879E+01  0.90963332842E+01  0.50400000000E-02 0. -1.
          2    1    1    2    0  502 -0.25294590907E+01  0.21748797988E+02  0.18251380644E+02  0.28504758885E+02  0.25500000000E-02 0. -1.
         -2    1    1    2  502    0  0.25294590907E+01 -0.21748797988E+02  0.26222511806E+02  0.34161798973E+02  0.25500000000E-02 0. -1.
<mgrwt>
<rscale>  0 0.44149410E+02</rscale>
<asrwt>0</asrwt>
<pdfrwt beam="1">  1        1 0.82415730E-02 0.44149410E+02</pdfrwt>
<pdfrwt beam="2">  1       -1 0.13994358E-02 0.44149410E+02</pdfrwt>
<totfact> 0.64312725E+05</totfact>
</mgrwt>
</event>
<event>
 4    1  0.1893769E-002  0.5603310E+02  0.7818608E-02  0.1415276E+00
         -1   -1    0    0  501    0 -0.00000000000E+00  0.00000000000E+00  0.21294397592E+03  0.21294397598E+03  0.50400000000E-02 0. -1.
          1   -1    0    0    0  501  0.00000000000E+00 -0.00000000000E+00 -0.36860708925E+01  0.36860743381E+01  0.50400000000E-02 0. -1.
          2    1    1    2    0  502  0.21157876000E+02  0.18363320945E+02  0.10368439013E+03  0.10740260721E+03  0.25500000000E-02 0. -1.
         -2    1    1    2  502    0 -0.21157876000E+02 -0.18363320945E+02  0.10557351490E+03  0.10922744311E+03  0.25500000000E-02 0. -1.
<mgrwt>
<rscale>  0 0.56033096E+02</rscale>
<asrwt>0</asrwt>
<pdfrwt beam="2">  1        1 0.56708767E-03 0.56033096E+02</pdfrwt>
<pdfrwt beam="1">  1       -1 0.32760637E-01 0.56033096E+02</pdfrwt>
<totfact> 0.23704295E+05</totfact>
</mgrwt>
</event>
<event>
 4    1  0.1893769E-002  0.8181411E+02  0.7818608E-02  0.1323981E+00
         -1   -1    0    0  501    0 -0.00000000000E+00  0.00000000000E+00  0.13034325862E+03  0.13034325872E+03  0.50400000000E-02 0. -1.
          1   -1    0    0    0  501  0.00000000000E+00 -0.00000000000E+00 -0.12838307950E+02  0.12838308939E+02  0.50400000000E-02 0. -1.
          2    1    1    2    0  502 -0.20142059306E+02 -0.31152928692E+02  0.88921989033E+02  0.96350026773E+02  0.25500000000E-02 0. -1.
         -2    1    1    2  502    0  0.20142059306E+02  0.31152928692E+02  0.28582961642E+02  0.46831540887E+02  0.25500000000E-02 0. -1.
<mgrwt>
<rscale>  0 0.81814106E+02</rscale>
<asrwt>0</asrwt>
<pdfrwt beam="2">  1        1 0.19751243E-02 0.81814106E+02</pdfrwt>
<pdfrwt beam="1">  1       -1 0.20052810E-01 0.81814106E+02</pdfrwt>
<totfact> 0.10208613E+05</totfact>
</mgrwt>
</event>
<event>
 4    1  0.1893769E-002  0.4114959E+02  0.7818608E-02  0.1499918E+00
         -1   -1    0    0  501    0 -0.00000000000E+00  0.00000000000E+00  0.45366251515E+01  0.45366279511E+01  0.50400000000E-02 0.  1.
          1   -1    0    0    0  501  0.00000000000E+00 -0.00000000000E+00 -0.93312124730E+02  0.93312124866E+02  0.50400000000E-02 0.  1.
          2    1    1    2    0  502 -0.18032934111E+02  0.98850583810E+01 -0.45930949704E+02  0.50324479521E+02  0.25500000000E-02 0.  1.
         -2    1    1    2  502    0  0.18032934111E+02 -0.98850583810E+01 -0.42844549874E+02  0.47524273296E+02  0.25500000000E-02 0.  1.
<mgrwt>
<rscale>  0 0.41149594E+02</rscale>
<asrwt>0</asrwt>
<pdfrwt beam="2">  1        1 0.14355710E-01 0.41149594E+02</pdfrwt>
<pdfrwt beam="1">  1       -1 0.69794262E-03 0.41149594E+02</pdfrwt>
<totfact> 0.81355300E+05</totfact>
</mgrwt>
</event>
<event>
 4    1  0.1893769E-002  0.9445352E+02  0.7818608E-02  0.1292412E+00
          1   -1    0    0    0  501  0.00000000000E+00  0.00000000000E+00  0.19541951877E+03  0.19541951883E+03  0.50400000000E-02 0.  1.
         -1   -1    0    0  501    0 -0.00000000000E+00 -0.00000000000E+00 -0.11413223407E+02  0.11413224520E+02  0.50400000000E-02 0.  1.
          2    1    1    2    0  502 -0.50270012008E+00 -0.40079630749E+02  0.37313894801E+02  0.54762726924E+02  0.25500000000E-02 0.  1.
         -2    1    1    2  502    0  0.50270012008E+00  0.40079630749E+02  0.14669240056E+03  0.15207001643E+03  0.25500000000E-02 0.  1.
<mgrwt>
<rscale>  0 0.94453518E+02</rscale>
<asrwt>0</asrwt>
<pdfrwt beam="1">  1        1 0.30064538E-01 0.94453518E+02</pdfrwt>
<pdfrwt beam="2">  1       -1 0.17558808E-02 0.94453518E+02</pdfrwt>
<totfact> 0.10719511E+05</totfact>
</mgrwt>
</event>
<event>
 4    1  0.1893769E-002  0.1444446E+03  0.7818608E-02  0.1207471E+00
         -1   -1    0    0  501    0 -0.00000000000E+00  0.00000000000E+00  0.38613075561E+02  0.38613075890E+02  0.50400000000E-02 0.  1.
          1   -1    0    0    0  501  0.00000000000E+00 -0.00000000000E+00 -0.13508528246E+03  0.13508528255E+03  0.50400000000E-02 0.  1.
          2    1    1    2    0  502 -0.32502274681E+02 -0.63204469323E+02 -0.32796144097E+02  0.78273813476E+02  0.25500000000E-02 0. -1.
         -2    1    1    2  502    0  0.32502274681E+02  0.63204469323E+02 -0.63676062799E+02  0.95424544966E+02  0.25500000000E-02 0. -1.
<mgrwt>
<rscale>  0 0.14444457E+03</rscale>
<asrwt>0</asrwt>
<pdfrwt beam="2">  1        1 0.20782351E-01 0.14444457E+03</pdfrwt>
<pdfrwt beam="1">  1       -1 0.59404732E-02 0.14444457E+03</pdfrwt>
<totfact> 0.30517959E+04</totfact>
</mgrwt>
</event>
<event>
 4    1  0.1893769E-002  0.5626921E+02  0.7818608E-02  0.1414190E+00
         -1   -1    0    0  501    0 -0.00000000000E+00  0.00000000000E+00  0.74026870703E+01  0.74026887860E+01  0.50400000000E-02 0.  1.
          1   -1    0    0    0  501  0.00000000000E+00 -0.00000000000E+00 -0.10692817204E+03  0.10692817215E+03  0.50400000000E-02 0.  1.
          2    1    1    2    0  502  0.65109184692E+01  0.20689531788E+02 -0.13352996957E+02  0.25470597150E+02  0.25500000000E-02 0.  1.
         -2    1    1    2  502    0 -0.65109184692E+01 -0.20689531788E+02 -0.86172488008E+02  0.88860263790E+02  0.25500000000E-02 0.  1.
<mgrwt>
<rscale>  0 0.56269207E+02</rscale>
<asrwt>0</asrwt>
<pdfrwt beam="2">  1        1 0.16450487E-01 0.56269207E+02</pdfrwt>
<pdfrwt beam="1">  1       -1 0.11388751E-02 0.56269207E+02</pdfrwt>
<totfact> 0.37740306E+05</totfact>
</mgrwt>
</event>
<event>
 4    1  0.1893769E-002  0.1292594E+03  0.7818608E-02  0.1228559E+00
          1   -1    0    0    0  501  0.00000000000E+00  0.00000000000E+00  0.28179050343E+03  0.28179050348E+03  0.50400000000E-02 0.  1.
         -1   -1    0    0  501    0 -0.00000000000E+00 -0.00000000000E+00 -0.14823072842E+02  0.14823073699E+02  0.50400000000E-02 0.  1.
          2    1    1    2    0  502 -0.45791315915E+02  0.38811390390E+02  0.78514270176E+02  0.98831469002E+02  0.25500000000E-02 0. -1.
         -2    1    1    2  502    0  0.45791315915E+02 -0.38811390390E+02  0.18845316041E+03  0.19778210817E+03  0.25500000000E-02 0. -1.
<mgrwt>
<rscale>  0 0.12925945E+03</rscale>
<asrwt>0</asrwt>
<pdfrwt beam="1">  1        1 0.43352386E-01 0.12925945E+03</pdfrwt>
<pdfrwt beam="2">  1       -1 0.22804727E-02 0.12925945E+03</pdfrwt>
<totfact> 0.49025331E+04</totfact>
</mgrwt>
</event>
<event>
 4    1  0.1893769E-002  0.4922777E+02  0.7818608E-02  0.1449552E+00
         -1   -1    0    0  501    0 -0.00000000000E+00  0.00000000000E+00  0.13434773230E+01  0.13434867767E+01  0.50400000000E-02 0. -1.
          1   -1    0    0    0  501  0.00000000000E+00 -0.00000000000E+00 -0.45095015445E+03  0.45095015448E+03  0.50400000000E-02 0. -1.
          2    1    1    2    0  502 -0.22802109471E+02  0.84041465086E+01 -0.26071515795E+03  0.26184529682E+03  0.25500000000E-02 0. -1.
         -2    1    1    2  502    0  0.22802109471E+02 -0.84041465086E+01 -0.18889151918E+03  0.19044834444E+03  0.25500000000E-02 0. -1.
<mgrwt>
<rscale>  0 0.49227775E+02</rscale>
<asrwt>0</asrwt>
<pdfrwt beam="2">  1        1 0.69376827E-01 0.49227775E+02</pdfrwt>
<pdfrwt beam="1">  1       -1 0.20668991E-03 0.49227775E+02</pdfrwt>
<totfact> 0.66896294E+05</totfact>
</mgrwt>
</event>
<event>
 4    1  0.1893769E-002  0.4301586E+02  0.7818608E-02  0.1487122E+00
          1   -1    0    0    0  501  0.00000000000E+00  0.00000000000E+00  0.45352416888E+00  0.45355217270E+00  0.50400000000E-02 0.  1.
         -1   -1    0    0  501    0 -0.00000000000E+00 -0.00000000000E+00 -0.10199604243E+04  0.10199604243E+04  0.50400000000E-02 0.  1.
          2    1    1    2    0  502  0.19828104992E+02  0.52899279876E+01 -0.66248562685E+03  0.66280339685E+03  0.25500000000E-02 0. -1.
         -2    1    1    2  502    0 -0.19828104992E+02 -0.52899279876E+01 -0.35702127328E+03  0.35761057963E+03  0.25500000000E-02 0. -1.
<mgrwt>
<rscale>  0 0.43015857E+02</rscale>
<asrwt>0</asrwt>
<pdfrwt beam="1">  1        1 0.69775921E-04 0.43015857E+02</pdfrwt>
<pdfrwt beam="2">  1       -1 0.15691515E+00 0.43015857E+02</pdfrwt>
<totfact> 0.16839699E+05</totfact>
</mgrwt>
</event>
<event>
 4    1  0.1893769E-002  0.5035531E+02  0.7818608E-02  0.1443434E+00
         -1   -1    0    0  501    0 -0.00000000000E+00  0.00000000000E+00  0.89585883586E+01  0.89585897764E+01  0.50400000000E-02 0. -1.
          1   -1    0    0    0  501  0.00000000000E+00 -0.00000000000E+00 -0.70760516311E+02  0.70760516490E+02  0.50400000000E-02 0. -1.
          2    1    1    2    0  502  0.38267289529E+01  0.24539460670E+02 -0.24357166893E+02  0.34786499824E+02  0.25500000000E-02 0.  1.
         -2    1    1    2  502    0 -0.38267289529E+01 -0.24539460670E+02 -0.37444761059E+02  0.44932606442E+02  0.25500000000E-02 0.  1.
<mgrwt>
<rscale>  0 0.50355314E+02</rscale>
<asrwt>0</asrwt>
<pdfrwt beam="2">  1        1 0.10886233E-01 0.50355314E+02</pdfrwt>
<pdfrwt beam="1">  1       -1 0.13782445E-02 0.50355314E+02</pdfrwt>
<totfact> 0.47515575E+05</totfact>
</mgrwt>
</event>
<event>
 4    1  0.1893769E-002  0.8026908E+02  0.7818608E-02  0.1328290E+00
          1   -1    0    0    0  501  0.00000000000E+00  0.00000000000E+00  0.11296267022E+02  0.11296268146E+02  0.50400000000E-02 0. -1.
         -1   -1    0    0  501    0 -0.00000000000E+00 -0.00000000000E+00 -0.14259412556E+03  0.14259412565E+03  0.50400000000E-02 0. -1.
          2    1    1    2    0  502 -0.23197868545E+02  0.15973385444E+02 -0.10833253921E+02  0.30176970434E+02  0.25500000000E-02 0.  1.
         -2    1    1    2  502    0  0.23197868545E+02 -0.15973385444E+02 -0.12046460462E+03  0.12371342337E+03  0.25500000000E-02 0.  1.
<mgrwt>
<rscale>  0 0.80269083E+02</rscale>
<asrwt>0</asrwt>
<pdfrwt beam="1">  1        1 0.17378874E-02 0.80269083E+02</pdfrwt>
<pdfrwt beam="2">  1       -1 0.21937557E-01 0.80269083E+02</pdfrwt>
<totfact> 0.10516166E+05</totfact>
</mgrwt>
</event>
<event>
 4    1  0.1893769E-002  0.4554504E+02  0.7818608E-02  0.1470967E+00
         -1   -1    0    0  501    0 -0.00000000000E+00  0.00000000000E+00  0.28915808360E+00  0.28920200365E+00  0.50400000000E-02 0. -1.
          1   -1    0    0    0  501  0.00000000000E+00 -0.00000000000E+00 -0.17933038113E+04  0.17933038113E+04  0.50400000000E-02 0. -1.
          2    1    1    2    0  502  0.15443474640E+02 -0.15032908639E+02 -0.11861583958E+04  0.11863541753E+04  0.25500000000E-02 0. -1.
         -2    1    1    2  502    0 -0.15443474640E+02  0.15032908639E+02 -0.60685625739E+03  0.60723883802E+03  0.25500000000E-02 0. -1.
<mgrwt>
<rscale>  0 0.45545041E+02</rscale>
<asrwt>0</asrwt>
<pdfrwt beam="2">  1        1 0.27588399E+00 0.45545041E+02</pdfrwt>
<pdfrwt beam="1">  1       -1 0.44490674E-04 0.45545041E+02</pdfrwt>
<totfact> 0.54855149E+05</totfact>
</mgrwt>
</event>
<event>
 4    1  0.1893769E-002  0.4285548E+02  0.7818608E-02  0.1488191E+00
         -1   -1    0    0  501    0 -0.00000000000E+00  0.00000000000E+00  0.10534037762E+03  0.10534037774E+03  0.50400000000E-02 0.  1.
          1   -1    0    0    0  501  0.00000000000E+00 -0.00000000000E+00 -0.43587067562E+01  0.43587096701E+01  0.50400000000E-02 0.  1.
          2    1    1    2    0  502  0.45812177238E+01  0.20795719562E+02  0.56601320978E+02  0.60474449571E+02  0.25500000000E-02 0. -1.
         -2    1    1    2  502    0 -0.45812177238E+01 -0.20795719562E+02  0.44380349883E+02  0.49224637837E+02  0.25500000000E-02 0. -1.
<mgrwt>
<rscale>  0 0.42855477E+02</rscale>
<asrwt>0</asrwt>
<pdfrwt beam="2">  1        1 0.67057052E-03 0.42855477E+02</pdfrwt>
<pdfrwt beam="1">  1       -1 0.16206212E-01 0.42855477E+02</pdfrwt>
<totfact> 0.53874999E+05</totfact>
</mgrwt>
</event>
<event>
 4    1  0.1893769E-002  0.5156474E+02  0.7818608E-02  0.1437080E+00
          1   -1    0    0    0  501  0.00000000000E+00  0.00000000000E+00  0.31823772597E+03  0.31823772601E+03  0.50400000000E-02 0. -1.
         -1   -1    0    0  501    0 -0.00000000000E+00 -0.00000000000E+00 -0.20887831595E+01  0.20887892400E+01  0.50400000000E-02 0. -1.
          2    1    1    2    0  502  0.23636284108E+02  0.89992003326E+01  0.12696975344E+03  0.12946419516E+03  0.25500000000E-02 0.  1.
         -2    1    1    2  502    0 -0.23636284108E+02 -0.89992003326E+01  0.18917918937E+03  0.19086232009E+03  0.25500000000E-02 0.  1.
<mgrwt>
<rscale>  0 0.51564739E+02</rscale>
<asrwt>0</asrwt>
<pdfrwt beam="1">  1        1 0.48959685E-01 0.51564739E+02</pdfrwt>
<pdfrwt beam="2">  1       -1 0.32135150E-03 0.51564739E+02</pdfrwt>
<totfact> 0.56463686E+05</totfact>
</mgrwt>
</event>
<event>
 4    1  0.1893769E-002  0.4633734E+02  0.7818608E-02  0.1466162E+00
          1   -1    0    0    0  501  0.00000000000E+00  0.00000000000E+00  0.99462255691E+03  0.99462255692E+03  0.50400000000E-02 0. -1.
         -1   -1    0    0  501    0 -0.00000000000E+00 -0.00000000000E+00 -0.53967764286E+00  0.53970117640E+00  0.50400000000E-02 0. -1.
          2    1    1    2    0  502  0.54839046581E+01 -0.19594151836E+02  0.25906585952E+03  0.25986366343E+03  0.25500000000E-02 0.  1.
         -2    1    1    2  502    0 -0.54839046581E+01  0.19594151836E+02  0.73501701974E+03  0.73529859466E+03  0.25500000000E-02 0.  1.
<mgrwt>
<rscale>  0 0.46337340E+02</rscale>
<asrwt>0</asrwt>
<pdfrwt beam="1">  1        1 0.15301820E+00 0.46337340E+02</pdfrwt>
<pdfrwt beam="2">  1       -1 0.83029499E-04 0.46337340E+02</pdfrwt>
<totfact> 0.76699392E+05</totfact>
</mgrwt>
</event>
<event>
 4    1  0.1893769E-002  0.7038302E+02  0.7818608E-02  0.1358795E+00
          1   -1    0    0    0  501  0.00000000000E+00  0.00000000000E+00  0.29594915957E+02  0.29594916386E+02  0.50400000000E-02 0. -1.
         -1   -1    0    0  501    0 -0.00000000000E+00 -0.00000000000E+00 -0.41846456969E+02  0.41846457273E+02  0.50400000000E-02 0. -1.
          2    1    1    2    0  502 -0.27477735444E+02  0.20894516194E+02  0.82079515596E+00  0.34529414465E+02  0.25500000000E-02 0. -1.
         -2    1    1    2  502    0  0.27477735444E+02 -0.20894516194E+02 -0.13072336168E+02  0.36911959194E+02  0.25500000000E-02 0. -1.
<mgrwt>
<rscale>  0 0.70383021E+02</rscale>
<asrwt>0</asrwt>
<pdfrwt beam="1">  1        1 0.45530640E-02 0.70383021E+02</pdfrwt>
<pdfrwt beam="2">  1       -1 0.64379165E-02 0.70383021E+02</pdfrwt>
<totfact> 0.17871103E+05</totfact>
</mgrwt>
</event>
<event>
 4    1  0.1893769E-002  0.4478911E+02  0.7818608E-02  0.1475663E+00
          1   -1    0    0    0  501  0.00000000000E+00  0.00000000000E+00  0.44422556844E+03  0.44422556847E+03  0.50400000000E-02 0. -1.
         -1   -1    0    0  501    0 -0.00000000000E+00 -0.00000000000E+00 -0.11289614104E+01  0.11289726603E+01  0.50400000000E-02 0. -1.
          2    1    1    2    0  502  0.19341757620E+02  0.10930644421E+02  0.19354143004E+03  0.19481239109E+03  0.25500000000E-02 0. -1.
         -2    1    1    2  502    0 -0.19341757620E+02 -0.10930644421E+02  0.24955517699E+03  0.25054215004E+03  0.25500000000E-02 0. -1.
<mgrwt>
<rscale>  0 0.44789107E+02</rscale>
<asrwt>0</asrwt>
<pdfrwt beam="1">  1        1 0.68342326E-01 0.44789107E+02</pdfrwt>
<pdfrwt beam="2">  1       -1 0.17368742E-03 0.44789107E+02</pdfrwt>
<totfact> 0.84286114E+05</totfact>
</mgrwt>
</event>
<event>
 4    1  0.1893769E-002  0.6367100E+02  0.7818608E-02  0.1383042E+00
         -1   -1    0    0  501    0 -0.00000000000E+00  0.00000000000E+00  0.20609242831E+03  0.20609242837E+03  0.50400000000E-02 0.  1.
          1   -1    0    0    0  501  0.00000000000E+00 -0.00000000000E+00 -0.49176904722E+01  0.49176930548E+01  0.50400000000E-02 0.  1.
          2    1    1    2    0  502 -0.25084416094E+02 -0.17755986229E+02  0.73059424506E+02  0.79260220119E+02  0.25500000000E-02 0. -1.
         -2    1    1    2  502    0  0.25084416094E+02  0.17755986229E+02  0.12811531333E+03  0.13174990131E+03  0.25500000000E-02 0. -1.
<mgrwt>
<rscale>  0 0.63671000E+02</rscale>
<asrwt>0</asrwt>
<pdfrwt beam="2">  1        1 0.75656793E-03 0.63671000E+02</pdfrwt>
<pdfrwt beam="1">  1       -1 0.31706529E-01 0.63671000E+02</pdfrwt>
<totfact> 0.17337983E+05</totfact>
</mgrwt>
</event>
<event>
 4    1  0.1893769E-002  0.1554276E+03  0.7818608E-02  0.1193958E+00
          1   -1    0    0    0  501  0.00000000000E+00  0.00000000000E+00  0.23177485770E+04  0.23177485770E+04  0.50400000000E-02 0. -1.
         -1   -1    0    0  501    0 -0.00000000000E+00 -0.00000000000E+00 -0.26057319290E+01  0.26057368032E+01  0.50400000000E-02 0. -1.
          2    1    1    2    0  502 -0.46170450250E+01  0.63624524726E+02  0.49495287819E+03  0.49904684038E+03  0.25500000000E-02 0. -1.
         -2    1    1    2  502    0  0.46170450250E+01 -0.63624524726E+02  0.18201899669E+04  0.18213074734E+04  0.25500000000E-02 0. -1.
<mgrwt>
<rscale>  0 0.15542763E+03</rscale>
<asrwt>0</asrwt>
<pdfrwt beam="1">  1        1 0.35657554E+00 0.15542763E+03</pdfrwt>
<pdfrwt beam="2">  1       -1 0.40088353E-03 0.15542763E+03</pdfrwt>
<totfact> 0.14398742E+04</totfact>
</mgrwt>
</event>
<event>
 4    1  0.1893769E-002  0.1424660E+03  0.7818608E-02  0.1210049E+00
          1   -1    0    0    0  501  0.00000000000E+00  0.00000000000E+00  0.72069435264E+03  0.72069435266E+03  0.50400000000E-02 0. -1.
         -1   -1    0    0  501    0 -0.00000000000E+00 -0.00000000000E+00 -0.70406305900E+01  0.70406323939E+01  0.50400000000E-02 0. -1.
          2    1    1    2    0  502 -0.11999073825E+02  0.25093897562E+02  0.69180729659E+03  0.69236624490E+03  0.25500000000E-02 0. -1.
         -2    1    1    2  502    0  0.11999073825E+02 -0.25093897562E+02  0.21846425465E+02  0.35368740148E+02  0.25500000000E-02 0. -1.
<mgrwt>
<rscale>  0 0.14246604E+03</rscale>
<asrwt>0</asrwt>
<pdfrwt beam="1">  1        1 0.11087607E+00 0.14246604E+03</pdfrwt>
<pdfrwt beam="2">  1       -1 0.10831739E-02 0.14246604E+03</pdfrwt>
<totfact> 0.42562108E+04</totfact>
</mgrwt>
</event>
<event>
 4    1  0.1893769E-002  0.4538999E+02  0.7818608E-02  0.1471922E+00
         -1   -1    0    0  501    0 -0.00000000000E+00  0.00000000000E+00  0.10884320356E+02  0.10884321523E+02  0.50400000000E-02 0. -1.
          1   -1    0    0    0  501  0.00000000000E+00 -0.00000000000E+00 -0.47321544913E+02  0.47321545182E+02  0.50400000000E-02 0. -1.
          2    1    1    2    0  502  0.19912057810E+02 -0.10769976560E+02 -0.16158673888E+02  0.27813399462E+02  0.25500000000E-02 0. -1.
         -2    1    1    2  502    0 -0.19912057810E+02  0.10769976560E+02 -0.20278550669E+02  0.30392467243E+02  0.25500000000E-02 0. -1.
<mgrwt>
<rscale>  0 0.45389994E+02</rscale>
<asrwt>0</asrwt>
<pdfrwt beam="2">  1        1 0.72802377E-02 0.45389994E+02</pdfrwt>
<pdfrwt beam="1">  1       -1 0.16745110E-02 0.45389994E+02</pdfrwt>
<totfact> 0.59284874E+05</totfact>
</mgrwt>
</event>
<event>
 4    1  0.1893769E-002  0.6297767E+02  0.7818608E-02  0.1385744E+00
          1   -1    0    0    0  501  0.00000000000E+00  0.00000000000E+00  0.11690877359E+03  0.11690877370E+03  0.50400000000E-02 0.  1.
         -1   -1    0    0  501    0 -0.00000000000E+00 -0.00000000000E+00 -0.84813713616E+01  0.84813728591E+01  0.50400000000E-02 0.  1.
          2    1    1    2    0  502 -0.15371093446E+02  0.18864061264E+02  0.14421899268E+02  0.28286295375E+02  0.25500000000E-02 0. -1.
         -2    1    1    2  502    0  0.15371093446E+02 -0.18864061264E+02  0.94005502962E+02  0.97103851183E+02  0.25500000000E-02 0. -1.
<mgrwt>
<rscale>  0 0.62977673E+02</rscale>
<asrwt>0</asrwt>
<pdfrwt beam="1">  1        1 0.17985965E-01 0.62977673E+02</pdfrwt>
<pdfrwt beam="2">  1       -1 0.13048265E-02 0.62977673E+02</pdfrwt>
<totfact> 0.28612682E+05</totfact>
</mgrwt>
</event>
<event>
 4    1  0.1893769E-002  0.4875380E+02  0.7818608E-02  0.1452181E+00
          1   -1    0    0    0  501  0.00000000000E+00  0.00000000000E+00  0.13549668867E+01  0.13549762602E+01  0.50400000000E-02 0.  1.
         -1   -1    0    0  501    0 -0.00000000000E+00 -0.00000000000E+00 -0.43855763192E+03  0.43855763195E+03  0.50400000000E-02 0.  1.
          2    1    1    2    0  502 -0.18405185998E+02  0.14801272590E+02 -0.16415908497E+03  0.16584943089E+03  0.25500000000E-02 0.  1.
         -2    1    1    2  502    0  0.18405185998E+02 -0.14801272590E+02 -0.27304358006E+03  0.27406317731E+03  0.25500000000E-02 0.  1.
<mgrwt>
<rscale>  0 0.48753795E+02</rscale>
<asrwt>0</asrwt>
<pdfrwt beam="1">  1        1 0.20845752E-03 0.48753795E+02</pdfrwt>
<pdfrwt beam="2">  1       -1 0.67470292E-01 0.48753795E+02</pdfrwt>
<totfact> 0.25053460E+05</totfact>
</mgrwt>
</event>
<event>
 4    1  0.1893769E-002  0.1055140E+03  0.7818608E-02  0.1269110E+00
          1   -1    0    0    0  501  0.00000000000E+00  0.00000000000E+00  0.55601962086E+03  0.55601962088E+03  0.50400000000E-02 0. -1.
         -1   -1    0    0  501    0 -0.00000000000E+00 -0.00000000000E+00 -0.50057582941E+01  0.50057608314E+01  0.50400000000E-02 0. -1.
          2    1    1    2    0  502 -0.67919146902E+01  0.25653842408E+02  0.33066519581E+02  0.42398637468E+02  0.25500000000E-02 0.  1.
         -2    1    1    2  502    0  0.67919146902E+01 -0.25653842408E+02  0.51794734298E+03  0.51862674424E+03  0.25500000000E-02 0.  1.
<mgrwt>
<rscale>  0 0.10551399E+03</rscale>
<asrwt>0</asrwt>
<pdfrwt beam="1">  1        1 0.85541452E-01 0.10551399E+03</pdfrwt>
<pdfrwt beam="2">  1       -1 0.77011711E-03 0.10551399E+03</pdfrwt>
<totfact> 0.95372690E+04</totfact>
</mgrwt>
</event>
<event>
 4    1  0.1893769E-002  0.4434732E+02  0.7818608E-02  0.1478458E+00
          1   -1    0    0    0  501  0.00000000000E+00  0.00000000000E+00  0.80698259606E+01  0.80698275344E+01  0.50400000000E-02 0.  1.
         -1   -1    0    0  501    0 -0.00000000000E+00 -0.00000000000E+00 -0.60927116246E+02  0.60927116455E+02  0.50400000000E-02 0.  1.
          2    1    1    2    0  502  0.21249439484E+02 -0.19047345575E+01 -0.35828824886E+02  0.41699776874E+02  0.25500000000E-02 0. -1.
         -2    1    1    2  502    0 -0.21249439484E+02  0.19047345575E+01 -0.17028465400E+02  0.27297167115E+02  0.25500000000E-02 0. -1.
<mgrwt>
<rscale>  0 0.44347324E+02</rscale>
<asrwt>0</asrwt>
<pdfrwt beam="1">  1        1 0.12415119E-02 0.44347324E+02</pdfrwt>
<pdfrwt beam="2">  1       -1 0.93734023E-02 0.44347324E+02</pdfrwt>
<totfact> 0.53591175E+05</totfact>
</mgrwt>
</event>
<event>
 4    1  0.1893769E-002  0.8453081E+02  0.7818608E-02  0.1316664E+00
         -1   -1    0    0  501    0 -0.00000000000E+00  0.00000000000E+00  0.32253413048E+01  0.32253452426E+01  0.50400000000E-02 0.  1.
          1   -1    0    0    0  501  0.00000000000E+00 -0.00000000000E+00 -0.55385250924E+03  0.55385250926E+03  0.50400000000E-02 0.  1.
          2    1    1    2    0  502 -0.10927192329E+02  0.31093338425E+02 -0.10093179200E+03  0.10617639036E+03  0.25500000000E-02 0.  1.
         -2    1    1    2  502    0  0.10927192329E+02 -0.31093338425E+02 -0.44969537593E+03  0.45090146414E+03  0.25500000000E-02 0.  1.
<mgrwt>
<rscale>  0 0.84530810E+02</rscale>
<asrwt>0</asrwt>
<pdfrwt beam="2">  1        1 0.85208003E-01 0.84530810E+02</pdfrwt>
<pdfrwt beam="1">  1       -1 0.49620710E-03 0.84530810E+02</pdfrwt>
<totfact> 0.17184614E+05</totfact>
</mgrwt>
</event>
<event>
 4    1  0.1893769E-002  0.5105875E+02  0.7818608E-02  0.1439713E+00
         -1   -1    0    0  501    0 -0.00000000000E+00  0.00000000000E+00  0.11129649680E+02  0.11129650821E+02  0.50400000000E-02 0.  1.
          1   -1    0    0    0  501  0.00000000000E+00 -0.00000000000E+00 -0.58559709671E+02  0.58559709888E+02  0.50400000000E-02 0.  1.
          2    1    1    2    0  502  0.13483739757E+02 -0.18936479094E+02 -0.38117491629E+02  0.44646888501E+02  0.25500000000E-02 0.  1.
         -2    1    1    2  502    0 -0.13483739757E+02  0.18936479094E+02 -0.93125683625E+01  0.25042472208E+02  0.25500000000E-02 0.  1.
<mgrwt>
<rscale>  0 0.51058754E+02</rscale>
<asrwt>0</asrwt>
<pdfrwt beam="2">  1        1 0.90091860E-02 0.51058754E+02</pdfrwt>
<pdfrwt beam="1">  1       -1 0.17122539E-02 0.51058754E+02</pdfrwt>
<totfact> 0.44920566E+05</totfact>
</mgrwt>
</event>
<event>
 4    1  0.1893769E-002  0.4197519E+02  0.7818608E-02  0.1494160E+00
          1   -1    0    0    0  501  0.00000000000E+00  0.00000000000E+00  0.86125117934E+00  0.86126592613E+00  0.50400000000E-02 0. -1.
         -1   -1    0    0  501    0 -0.00000000000E+00 -0.00000000000E+00 -0.51143650155E+03  0.51143650157E+03  0.50400000000E-02 0. -1.
          2    1    1    2    0  502 -0.20627011035E+02  0.34200836005E+01 -0.27748727565E+03  0.27827389154E+03  0.25500000000E-02 0.  1.
         -2    1    1    2  502    0  0.20627011035E+02 -0.34200836005E+01 -0.23308797472E+03  0.23402387596E+03  0.25500000000E-02 0.  1.
<mgrwt>
<rscale>  0 0.41975187E+02</rscale>
<asrwt>0</asrwt>
<pdfrwt beam="1">  1        1 0.13250173E-03 0.41975187E+02</pdfrwt>
<pdfrwt beam="2">  1       -1 0.78682297E-01 0.41975187E+02</pdfrwt>
<totfact> 0.33030347E+05</totfact>
</mgrwt>
</event>
<event>
 4    1  0.1893769E-002  0.5502731E+02  0.7818608E-02  0.1419970E+00
          1   -1    0    0    0  501  0.00000000000E+00  0.00000000000E+00  0.13625323322E+03  0.13625323331E+03  0.50400000000E-02 0.  1.
         -1   -1    0    0  501    0 -0.00000000000E+00 -0.00000000000E+00 -0.55558384000E+01  0.55558406861E+01  0.50400000000E-02 0.  1.
          2    1    1    2    0  502 -0.24398725652E+02 -0.29389658404E+01  0.97232110926E+02  0.10028967412E+03  0.25500000000E-02 0.  1.
         -2    1    1    2  502    0  0.24398725652E+02  0.29389658404E+01  0.33465283892E+02  0.41519399877E+02  0.25500000000E-02 0.  1.
<mgrwt>
<rscale>  0 0.55027306E+02</rscale>
<asrwt>0</asrwt>
<pdfrwt beam="1">  1        1 0.20962036E-01 0.55027306E+02</pdfrwt>
<pdfrwt beam="2">  1       -1 0.85474456E-03 0.55027306E+02</pdfrwt>
<totfact> 0.41424394E+05</totfact>
</mgrwt>
</event>
<event>
 4    1  0.1893769E-002  0.4153921E+02  0.7818608E-02  0.1497181E+00
         -1   -1    0    0  501    0 -0.00000000000E+00  0.00000000000E+00  0.75836167523E+01  0.75836184271E+01  0.50400000000E-02 0.  1.
          1   -1    0    0    0  501  0.00000000000E+00 -0.00000000000E+00 -0.56882679502E+02  0.56882679725E+02  0.50400000000E-02 0.  1.
          2    1    1    2    0  502 -0.20647068335E+02  0.17523300248E+01 -0.22452343556E+02  0.30552902137E+02  0.25500000000E-02 0.  1.
         -2    1    1    2  502    0  0.20647068335E+02 -0.17523300248E+01 -0.26846719193E+02  0.33913396015E+02  0.25500000000E-02 0.  1.
<mgrwt>
<rscale>  0 0.41539211E+02</rscale>
<asrwt>0</asrwt>
<pdfrwt beam="2">  1        1 0.87511813E-02 0.41539211E+02</pdfrwt>
<pdfrwt beam="1">  1       -1 0.11667105E-02 0.41539211E+02</pdfrwt>
<totfact> 0.75305061E+05</totfact>
</mgrwt>
</event>
<event>
 4    1  0.1893769E-002  0.3936362E+03  0.7818608E-02  0.1046006E+00
         -1   -1    0    0  501    0 -0.00000000000E+00  0.00000000000E+00  0.14496290732E+03  0.14496290741E+03  0.50400000000E-02 0.  1.
          1   -1    0    0    0  501  0.00000000000E+00 -0.00000000000E+00 -0.26722265747E+03  0.26722265752E+03  0.50400000000E-02 0.  1.
          2    1    1    2    0  502  0.24727707257E+02 -0.17730010543E+03 -0.14678035320E+03  0.23149785956E+03  0.25500000000E-02 0.  1.
         -2    1    1    2  502    0 -0.24727707257E+02  0.17730010543E+03  0.24520603047E+02  0.18068770537E+03  0.25500000000E-02 0.  1.
<mgrwt>
<rscale>  0 0.39363625E+03</rscale>
<asrwt>0</asrwt>
<pdfrwt beam="2">  1        1 0.41111178E-01 0.39363625E+03</pdfrwt>
<pdfrwt beam="1">  1       -1 0.22301986E-01 0.39363625E+03</pdfrwt>
<totfact> 0.17180638E+03</totfact>
</mgrwt>
</event>
<event>
 4    1  0.1893769E-002  0.4605680E+02  0.7818608E-02  0.1467850E+00
          1   -1    0    0    0  501  0.00000000000E+00  0.00000000000E+00  0.25450605069E+02  0.25450605568E+02  0.50400000000E-02 0. -1.
         -1   -1    0    0  501    0 -0.00000000000E+00 -0.00000000000E+00 -0.20836723459E+02  0.20836724068E+02  0.50400000000E-02 0. -1.
          2    1    1    2    0  502 -0.75400447371E+01 -0.21723720467E+02  0.35520662212E+01  0.23267777860E+02  0.25500000000E-02 0. -1.
         -2    1    1    2  502    0  0.75400447371E+01  0.21723720467E+02  0.10618153892E+01  0.23019551777E+02  0.25500000000E-02 0. -1.
<mgrwt>
<rscale>  0 0.46056802E+02</rscale>
<asrwt>0</asrwt>
<pdfrwt beam="1">  1        1 0.39154778E-02 0.46056802E+02</pdfrwt>
<pdfrwt beam="2">  1       -1 0.32056499E-02 0.46056802E+02</pdfrwt>
<totfact> 0.54160682E+05</totfact>
</mgrwt>
</event>
<event>
 4    1  0.1893769E-002  0.7250632E+02  0.7818608E-02  0.1351772E+00
          1   -1    0    0    0  501  0.00000000000E+00  0.00000000000E+00  0.67647746051E+02  0.67647746239E+02  0.50400000000E-02 0. -1.
         -1   -1    0    0  501    0 -0.00000000000E+00 -0.00000000000E+00 -0.19428461374E+02  0.19428462028E+02  0.50400000000E-02 0. -1.
          2    1    1    2    0  502 -0.11462548368E+02 -0.23954767367E+02 -0.55289458290E+01  0.27125451944E+02  0.25500000000E-02 0. -1.
         -2    1    1    2  502    0  0.11462548368E+02  0.23954767367E+02  0.53748230506E+02  0.59950756323E+02  0.25500000000E-02 0. -1.
<mgrwt>
<rscale>  0 0.72506321E+02</rscale>
<asrwt>0</asrwt>
<pdfrwt beam="1">  1        1 0.10407346E-01 0.72506321E+02</pdfrwt>
<pdfrwt beam="2">  1       -1 0.29889941E-02 0.72506321E+02</pdfrwt>
<totfact> 0.18283768E+05</totfact>
</mgrwt>
</event>
<event>
 4    1  0.1893769E-002  0.6433878E+02  0.7818608E-02  0.1380476E+00
         -1   -1    0    0  501    0 -0.00000000000E+00  0.00000000000E+00  0.49675637621E+01  0.49675663188E+01  0.50400000000E-02 0. -1.
          1   -1    0    0    0  501  0.00000000000E+00 -0.00000000000E+00 -0.20832532007E+03  0.20832532013E+03  0.50400000000E-02 0. -1.
          2    1    1    2    0  502  0.29619773831E+02  0.12536994002E+02 -0.10367448723E+03  0.10854909732E+03  0.25500000000E-02 0.  1.
         -2    1    1    2  502    0 -0.29619773831E+02 -0.12536994002E+02 -0.99683269081E+02  0.10474378913E+03  0.25500000000E-02 0.  1.
<mgrwt>
<rscale>  0 0.64338778E+02</rscale>
<asrwt>0</asrwt>
<pdfrwt beam="2">  1        1 0.32050043E-01 0.64338778E+02</pdfrwt>
<pdfrwt beam="1">  1       -1 0.76424094E-03 0.64338778E+02</pdfrwt>
<totfact> 0.29834533E+05</totfact>
</mgrwt>
</event>
<event>
 4    1  0.1893769E-002  0.4661377E+02  0.7818608E-02  0.1464512E+00
          1   -1    0    0    0  501  0.00000000000E+00  0.00000000000E+00  0.18773982864E+04  0.18773982864E+04  0.50400000000E-02 0. -1.
         -1   -1    0    0  501    0 -0.00000000000E+00 -0.00000000000E+00 -0.28932037504E+00  0.28936427045E+00  0.50400000000E-02 0. -1.
          2    1    1    2    0  502 -0.14342813557E+02 -0.18325604544E+02  0.88655027857E+03  0.88685564808E+03  0.25500000000E-02 0. -1.
         -2    1    1    2  502    0  0.14342813557E+02  0.18325604544E+02  0.99055868743E+03  0.99083200258E+03  0.25500000000E-02 0. -1.
<mgrwt>
<rscale>  0 0.46613766E+02</rscale>
<asrwt>0</asrwt>
<pdfrwt beam="1">  1        1 0.28883374E+00 0.46613766E+02</pdfrwt>
<pdfrwt beam="2">  1       -1 0.44513707E-04 0.46613766E+02</pdfrwt>
<totfact> 0.48940985E+05</totfact>
</mgrwt>
</event>
<event>
 4    1  0.1893769E-002  0.6235688E+02  0.7818608E-02  0.1388199E+00
          1   -1    0    0    0  501  0.00000000000E+00  0.00000000000E+00  0.20974317054E+03  0.20974317060E+03  0.50400000000E-02 0. -1.
         -1   -1    0    0  501    0 -0.00000000000E+00 -0.00000000000E+00 -0.46346905629E+01  0.46346933032E+01  0.50400000000E-02 0. -1.
          2    1    1    2    0  502  0.25761446301E+02 -0.16237461512E+02  0.12556203732E+03  0.12920190592E+03  0.25500000000E-02 0.  1.
         -2    1    1    2  502    0 -0.25761446301E+02  0.16237461512E+02  0.79546442656E+02  0.85175957979E+02  0.25500000000E-02 0.  1.
<mgrwt>
<rscale>  0 0.62356876E+02</rscale>
<asrwt>0</asrwt>
<pdfrwt beam="1">  1        1 0.32268176E-01 0.62356876E+02</pdfrwt>
<pdfrwt beam="2">  1       -1 0.71302962E-03 0.62356876E+02</pdfrwt>
<totfact> 0.32376139E+05</totfact>
</mgrwt>
</event>
<event>
 4    1  0.1893769E-002  0.4778655E+02  0.7818608E-02  0.1457660E+00
         -1   -1    0    0  501    0 -0.00000000000E+00  0.00000000000E+00  0.20415583144E+02  0.20415583766E+02  0.50400000000E-02 0.  1.
          1   -1    0    0    0  501  0.00000000000E+00 -0.00000000000E+00 -0.27963370305E+02  0.27963370760E+02  0.50400000000E-02 0.  1.
          2    1    1    2    0  502  0.20746862300E+02  0.18925777875E+01  0.80704749613E+01  0.22341591675E+02  0.25500000000E-02 0.  1.
         -2    1    1    2  502    0 -0.20746862300E+02 -0.18925777875E+01 -0.15618262123E+02  0.26037362851E+02  0.25500000000E-02 0.  1.
<mgrwt>
<rscale>  0 0.47786548E+02</rscale>
<asrwt>0</asrwt>
<pdfrwt beam="2">  1        1 0.43020571E-02 0.47786548E+02</pdfrwt>
<pdfrwt beam="1">  1       -1 0.31408590E-02 0.47786548E+02</pdfrwt>
<totfact> 0.49658680E+05</totfact>
</mgrwt>
</event>
<event>
 4    1  0.1893769E-002  0.5271598E+02  0.7818608E-02  0.1431220E+00
         -1   -1    0    0  501    0 -0.00000000000E+00  0.00000000000E+00  0.49170618101E+00  0.49173201040E+00  0.50400000000E-02 0. -1.
          1   -1    0    0    0  501  0.00000000000E+00 -0.00000000000E+00 -0.14128869579E+04  0.14128869579E+04  0.50400000000E-02 0. -1.
          2    1    1    2    0  502  0.11783201918E+02  0.17026865325E+02 -0.11434631992E+04  0.11436506660E+04  0.25500000000E-02 0. -1.
         -2    1    1    2  502    0 -0.11783201918E+02 -0.17026865325E+02 -0.26893205253E+03  0.26972802390E+03  0.25500000000E-02 0. -1.
<mgrwt>
<rscale>  0 0.52715975E+02</rscale>
<asrwt>0</asrwt>
<pdfrwt beam="2">  1        1 0.21736398E+00 0.52715975E+02</pdfrwt>
<pdfrwt beam="1">  1       -1 0.75650223E-04 0.52715975E+02</pdfrwt>
<totfact> 0.47450809E+05</totfact>
</mgrwt>
</event>
<event>
 4    1  0.1893769E-002  0.7117837E+02  0.7818608E-02  0.1356131E+00
          1   -1    0    0    0  501  0.00000000000E+00  0.00000000000E+00  0.64347545730E+03  0.64347545732E+03  0.50400000000E-02 0.  1.
         -1   -1    0    0  501    0 -0.00000000000E+00 -0.00000000000E+00 -0.19683550188E+01  0.19683614713E+01  0.50400000000E-02 0.  1.
          2    1    1    2    0  502 -0.16221562173E+02  0.23992499961E+02  0.50831190145E+03  0.50913629639E+03  0.25500000000E-02 0. -1.
         -2    1    1    2  502    0  0.16221562173E+02 -0.23992499961E+02  0.13319520083E+03  0.13630752241E+03  0.25500000000E-02 0. -1.
<mgrwt>
<rscale>  0 0.71178374E+02</rscale>
<asrwt>0</asrwt>
<pdfrwt beam="1">  1        1 0.98996190E-01 0.71178374E+02</pdfrwt>
<pdfrwt beam="2">  1       -1 0.30282445E-03 0.71178374E+02</pdfrwt>
<totfact> 0.27129400E+05</totfact>
</mgrwt>
</event>
<event>
 4    1  0.1893769E-002  0.1227226E+03  0.7818608E-02  0.1238672E+00
         -1   -1    0    0  501    0 -0.00000000000E+00  0.00000000000E+00  0.14884900663E+02  0.14884901516E+02  0.50400000000E-02 0.  1.
          1   -1    0    0    0  501  0.00000000000E+00 -0.00000000000E+00 -0.25295481330E+03  0.25295481335E+03  0.50400000000E-02 0.  1.
          2    1    1    2    0  502 -0.20508387818E+02 -0.76532345637E+01 -0.24414352149E+03  0.24512287748E+03  0.25500000000E-02 0.  1.
         -2    1    1    2  502    0  0.20508387818E+02  0.76532345637E+01  0.60736088499E+01  0.22716837393E+02  0.25500000000E-02 0.  1.
<mgrwt>
<rscale>  0 0.12272257E+03</rscale>
<asrwt>0</asrwt>
<pdfrwt beam="2">  1        1 0.38916122E-01 0.12272257E+03</pdfrwt>
<pdfrwt beam="1">  1       -1 0.22899850E-02 0.12272257E+03</pdfrwt>
<totfact> 0.55313652E+04</totfact>
</mgrwt>
</event>
<event>
 4    1  0.1893769E-002  0.4551126E+02  0.7818608E-02  0.1471175E+00
          1   -1    0    0    0  501  0.00000000000E+00  0.00000000000E+00  0.23336489103E+03  0.23336489108E+03  0.50400000000E-02 0. -1.
         -1   -1    0    0  501    0 -0.00000000000E+00 -0.00000000000E+00 -0.22189197411E+01  0.22189254650E+01  0.50400000000E-02 0. -1.
          2    1    1    2    0  502 -0.14926733635E+02  0.14928000949E+02  0.15954669266E+03  0.16093725403E+03  0.25500000000E-02 0.  1.
         -2    1    1    2  502    0  0.14926733635E+02 -0.14928000949E+02  0.71599278625E+02  0.74646562516E+02  0.25500000000E-02 0.  1.
<mgrwt>
<rscale>  0 0.45511258E+02</rscale>
<asrwt>0</asrwt>
<pdfrwt beam="1">  1        1 0.35902282E-01 0.45511258E+02</pdfrwt>
<pdfrwt beam="2">  1       -1 0.34137280E-03 0.45511258E+02</pdfrwt>
<totfact> 0.72949843E+05</totfact>
</mgrwt>
</event>
<event>
 4    1  0.1893769E-002  0.6475240E+02  0.7818608E-02  0.1378905E+00
         -1   -1    0    0  501    0 -0.00000000000E+00  0.00000000000E+00  0.15726724532E+02  0.15726725339E+02  0.50400000000E-02 0.  1.
          1   -1    0    0    0  501  0.00000000000E+00 -0.00000000000E+00 -0.66652033791E+02  0.66652033982E+02  0.50400000000E-02 0.  1.
          2    1    1    2    0  502 -0.30701333222E+02  0.72009764369E+01 -0.16131843442E+02  0.35421212608E+02  0.25500000000E-02 0.  1.
         -2    1    1    2  502    0  0.30701333222E+02 -0.72009764369E+01 -0.34793465817E+02  0.46957546713E+02  0.25500000000E-02 0.  1.
<mgrwt>
<rscale>  0 0.64752397E+02</rscale>
<asrwt>0</asrwt>
<pdfrwt beam="2">  1        1 0.10254159E-01 0.64752397E+02</pdfrwt>
<pdfrwt beam="1">  1       -1 0.24194962E-02 0.64752397E+02</pdfrwt>
<totfact> 0.24628920E+05</totfact>
</mgrwt>
</event>
<event>
 4    1  0.1893769E-002  0.9496288E+02  0.7818608E-02  0.1291260E+00
          1   -1    0    0    0  501  0.00000000000E+00  0.00000000000E+00  0.17941253251E+04  0.17941253251E+04  0.50400000000E-02 0.  1.
         -1   -1    0    0  501    0 -0.00000000000E+00 -0.00000000000E+00 -0.12565889857E+01  0.12565990930E+01  0.50400000000E-02 0.  1.
          2    1    1    2    0  502  0.44366365084E+02 -0.10215366763E+01  0.57722311275E+03  0.57892654093E+03  0.25500000000E-02 0. -1.
         -2    1    1    2  502    0 -0.44366365084E+02  0.10215366763E+01  0.12156456234E+04  0.12164553833E+04  0.25500000000E-02 0. -1.
<mgrwt>
<rscale>  0 0.94962881E+02</rscale>
<asrwt>0</asrwt>
<pdfrwt beam="1">  1        1 0.27601789E+00 0.94962881E+02</pdfrwt>
<pdfrwt beam="2">  1       -1 0.19332313E-03 0.94962881E+02</pdfrwt>
<totfact> 0.82884348E+04</totfact>
</mgrwt>
</event>
<event>
 4    1  0.1893769E-002  0.5325947E+02  0.7818608E-02  0.1428514E+00
         -1   -1    0    0  501    0 -0.00000000000E+00  0.00000000000E+00  0.15679492888E+01  0.15679573891E+01  0.50400000000E-02 0.  1.
          1   -1    0    0    0  501  0.00000000000E+00 -0.00000000000E+00 -0.45227295705E+03  0.45227295708E+03  0.50400000000E-02 0.  1.
          2    1    1    2    0  502 -0.58668917244E+01 -0.25938546082E+02 -0.21356253462E+03  0.21521195318E+03  0.25500000000E-02 0. -1.
         -2    1    1    2  502    0  0.58668917244E+01  0.25938546082E+02 -0.23714247315E+03  0.23862896129E+03  0.25500000000E-02 0. -1.
<mgrwt>
<rscale>  0 0.53259474E+02</rscale>
<asrwt>0</asrwt>
<pdfrwt beam="2">  1        1 0.69580352E-01 0.53259474E+02</pdfrwt>
<pdfrwt beam="1">  1       -1 0.24122395E-03 0.53259474E+02</pdfrwt>
<totfact> 0.55001013E+05</totfact>
</mgrwt>
</event>
<event>
 4    1  0.1893769E-002  0.6754414E+02  0.7818608E-02  0.1368649E+00
          1   -1    0    0    0  501  0.00000000000E+00  0.00000000000E+00  0.36437349169E+03  0.36437349172E+03  0.50400000000E-02 0.  1.
         -1   -1    0    0  501    0 -0.00000000000E+00 -0.00000000000E+00 -0.31301727200E+01  0.31301767776E+01  0.50400000000E-02 0.  1.
          2    1    1    2    0  502  0.18645621339E+02  0.27459338448E+02  0.21454724353E+03  0.21709950294E+03  0.25500000000E-02 0. -1.
         -2    1    1    2  502    0 -0.18645621339E+02 -0.27459338448E+02  0.14669607544E+03  0.15040416557E+03  0.25500000000E-02 0. -1.
<mgrwt>
<rscale>  0 0.67544140E+02</rscale>
<asrwt>0</asrwt>
<pdfrwt beam="1">  1        1 0.56057432E-01 0.67544140E+02</pdfrwt>
<pdfrwt beam="2">  1       -1 0.48156560E-03 0.67544140E+02</pdfrwt>
<totfact> 0.29111329E+05</totfact>
</mgrwt>
</event>
<event>
 4    1  0.1893769E-002  0.4289835E+02  0.7818608E-02  0.1487905E+00
         -1   -1    0    0  501    0 -0.00000000000E+00  0.00000000000E+00  0.15682062155E+01  0.15682143144E+01  0.50400000000E-02 0. -1.
          1   -1    0    0    0  501  0.00000000000E+00 -0.00000000000E+00 -0.29337080810E+03  0.29337080814E+03  0.50400000000E-02 0. -1.
          2    1    1    2    0  502 -0.20574611711E+02 -0.53259298965E+01 -0.12599028247E+03  0.12777022916E+03  0.25500000000E-02 0. -1.
         -2    1    1    2  502    0  0.20574611711E+02  0.53259298965E+01 -0.16581231941E+03  0.16716879330E+03  0.25500000000E-02 0. -1.
<mgrwt>
<rscale>  0 0.42898351E+02</rscale>
<asrwt>0</asrwt>
<pdfrwt beam="2">  1        1 0.45133928E-01 0.42898351E+02</pdfrwt>
<pdfrwt beam="1">  1       -1 0.24126335E-03 0.42898351E+02</pdfrwt>
<totfact> 0.87791924E+05</totfact>
</mgrwt>
</event>
<event>
 4    1  0.1893769E-002  0.8292318E+02  0.7818608E-02  0.1320955E+00
          1   -1    0    0    0  501  0.00000000000E+00  0.00000000000E+00  0.30255971791E+02  0.30255972211E+02  0.50400000000E-02 0.  1.
         -1   -1    0    0  501    0 -0.00000000000E+00 -0.00000000000E+00 -0.56817328742E+02  0.56817328966E+02  0.50400000000E-02 0.  1.
          2    1    1    2    0  502  0.18753652898E+02 -0.11164657275E+02 -0.50297125013E+02  0.54828367294E+02  0.25500000000E-02 0.  1.
         -2    1    1    2  502    0 -0.18753652898E+02  0.11164657275E+02  0.23735768062E+02  0.32244933882E+02  0.25500000000E-02 0.  1.
<mgrwt>
<rscale>  0 0.82923182E+02</rscale>
<asrwt>0</asrwt>
<pdfrwt beam="1">  1        1 0.46547649E-02 0.82923182E+02</pdfrwt>
<pdfrwt beam="2">  1       -1 0.87411275E-02 0.82923182E+02</pdfrwt>
<totfact> 0.11367018E+05</totfact>
</mgrwt>
</event>
<event>
 4    1  0.1893769E-002  0.8274406E+02  0.7818608E-02  0.1321440E+00
         -1   -1    0    0  501    0 -0.00000000000E+00  0.00000000000E+00  0.38715573347E+01  0.38715606152E+01  0.50400000000E-02 0.  1.
          1   -1    0    0    0  501  0.00000000000E+00 -0.00000000000E+00 -0.44210740762E+03  0.44210740764E+03  0.50400000000E-02 0.  1.
          2    1    1    2    0  502  0.66550936931E+01 -0.28442366296E+02 -0.37703131951E+03  0.37816117512E+03  0.25500000000E-02 0.  1.
         -2    1    1    2  502    0 -0.66550936931E+01  0.28442366296E+02 -0.61204530775E+02  0.67817793141E+02  0.25500000000E-02 0.  1.
<mgrwt>
<rscale>  0 0.82744061E+02</rscale>
<asrwt>0</asrwt>
<pdfrwt beam="2">  1        1 0.68016485E-01 0.82744061E+02</pdfrwt>
<pdfrwt beam="1">  1       -1 0.59562481E-03 0.82744061E+02</pdfrwt>
<totfact> 0.17700172E+05</totfact>
</mgrwt>
</event>
<event>
 4    1  0.1893769E-002  0.5354979E+02  0.7818608E-02  0.1427084E+00
         -1   -1    0    0  501    0 -0.00000000000E+00  0.00000000000E+00  0.17675677365E+01  0.17675749219E+01  0.50400000000E-02 0.  1.
          1   -1    0    0    0  501  0.00000000000E+00 -0.00000000000E+00 -0.40558195234E+03  0.40558195237E+03  0.50400000000E-02 0.  1.
          2    1    1    2    0  502 -0.24257004127E+02 -0.10590587756E+02 -0.17116518014E+03  0.17319954301E+03  0.25500000000E-02 0.  1.
         -2    1    1    2  502    0  0.24257004127E+02  0.10590587756E+02 -0.23264920446E+03  0.23414998429E+03  0.25500000000E-02 0.  1.
<mgrwt>
<rscale>  0 0.53549792E+02</rscale>
<asrwt>0</asrwt>
<pdfrwt beam="2">  1        1 0.62397150E-01 0.53549792E+02</pdfrwt>
<pdfrwt beam="1">  1       -1 0.27193438E-03 0.53549792E+02</pdfrwt>
<totfact> 0.53428658E+05</totfact>
</mgrwt>
</event>
<event>
 4    1  0.1893769E-002  0.1239307E+03  0.7818608E-02  0.1236750E+00
         -1   -1    0    0  501    0 -0.00000000000E+00  0.00000000000E+00  0.43353766627E+01  0.43353795922E+01  0.50400000000E-02 0.  1.
          1   -1    0    0    0  501  0.00000000000E+00 -0.00000000000E+00 -0.88566777999E+03  0.88566778001E+03  0.50400000000E-02 0.  1.
          2    1    1    2    0  502 -0.30229171956E+02 -0.53420874191E+02 -0.50165031071E+03  0.50539155798E+03  0.25500000000E-02 0. -1.
         -2    1    1    2  502    0  0.30229171956E+02  0.53420874191E+02 -0.37968209262E+03  0.38461160161E+03  0.25500000000E-02 0. -1.
<mgrwt>
<rscale>  0 0.12393070E+03</rscale>
<asrwt>0</asrwt>
<pdfrwt beam="2">  1        1 0.13625644E+00 0.12393070E+03</pdfrwt>
<pdfrwt beam="1">  1       -1 0.66698195E-03 0.12393070E+03</pdfrwt>
<totfact> 0.61269333E+04</totfact>
</mgrwt>
</event>
<event>
 4    1  0.1893769E-002  0.4610054E+02  0.7818608E-02  0.1467586E+00
          1   -1    0    0    0  501  0.00000000000E+00  0.00000000000E+00  0.23033560032E+02  0.23033560583E+02  0.50400000000E-02 0. -1.
         -1   -1    0    0  501    0 -0.00000000000E+00 -0.00000000000E+00 -0.23066993961E+02  0.23066994512E+02  0.50400000000E-02 0. -1.
          2    1    1    2    0  502  0.19768163773E+02 -0.37298828871E+01 -0.11269394440E+02  0.23058438430E+02  0.25500000000E-02 0.  1.
         -2    1    1    2  502    0 -0.19768163773E+02  0.37298828871E+01  0.11235960511E+02  0.23042116665E+02  0.25500000000E-02 0.  1.
<mgrwt>
<rscale>  0 0.46100543E+02</rscale>
<asrwt>0</asrwt>
<pdfrwt beam="1">  1        1 0.35436247E-02 0.46100543E+02</pdfrwt>
<pdfrwt beam="2">  1       -1 0.35487684E-02 0.46100543E+02</pdfrwt>
<totfact> 0.53579871E+05</totfact>
</mgrwt>
</event>
<event>
 4    1  0.1893769E-002  0.5075788E+02  0.7818608E-02  0.1441296E+00
          1   -1    0    0    0  501  0.00000000000E+00  0.00000000000E+00  0.61831209680E+01  0.61831230221E+01  0.50400000000E-02 0.  1.
         -1   -1    0    0  501    0 -0.00000000000E+00 -0.00000000000E+00 -0.10416913944E+03  0.10416913956E+03  0.50400000000E-02 0.  1.
          2    1    1    2    0  502  0.23189787893E+02 -0.69158787242E+01 -0.65620880727E+02  0.69940657954E+02  0.25500000000E-02 0.  1.
         -2    1    1    2  502    0 -0.23189787893E+02  0.69158787242E+01 -0.32365137742E+02  0.40411604628E+02  0.25500000000E-02 0.  1.
<mgrwt>
<rscale>  0 0.50757877E+02</rscale>
<asrwt>0</asrwt>
<pdfrwt beam="1">  1        1 0.95124962E-03 0.50757877E+02</pdfrwt>
<pdfrwt beam="2">  1       -1 0.16026020E-01 0.50757877E+02</pdfrwt>
<totfact> 0.35615480E+05</totfact>
</mgrwt>
</event>
<event>
 4    1  0.1893769E-002  0.4481659E+02  0.7818608E-02  0.1475490E+00
         -1   -1    0    0  501    0 -0.00000000000E+00  0.00000000000E+00  0.46207394190E+02  0.46207394465E+02  0.50400000000E-02 0. -1.
          1   -1    0    0    0  501  0.00000000000E+00 -0.00000000000E+00 -0.10866909162E+02  0.10866910331E+02  0.50400000000E-02 0. -1.
          2    1    1    2    0  502 -0.14870881872E+02 -0.14314216060E+02  0.65613580885E+01  0.21658516466E+02  0.25500000000E-02 0. -1.
         -2    1    1    2  502    0  0.14870881872E+02  0.14314216060E+02  0.28779126940E+02  0.35415788329E+02  0.25500000000E-02 0. -1.
<mgrwt>
<rscale>  0 0.44816586E+02</rscale>
<asrwt>0</asrwt>
<pdfrwt beam="2">  1        1 0.16718322E-02 0.44816586E+02</pdfrwt>
<pdfrwt beam="1">  1       -1 0.71088302E-02 0.44816586E+02</pdfrwt>
<totfact> 0.53861199E+05</totfact>
</mgrwt>
</event>
<event>
 4    1  0.1893769E-002  0.8025767E+02  0.7818608E-02  0.1328322E+00
          1   -1    0    0    0  501  0.00000000000E+00  0.00000000000E+00  0.33717179545E+02  0.33717179922E+02  0.50400000000E-02 0. -1.
         -1   -1    0    0  501    0 -0.00000000000E+00 -0.00000000000E+00 -0.47759729262E+02  0.47759729528E+02  0.50400000000E-02 0. -1.
          2    1    1    2    0  502 -0.38618317321E+02 -0.92167413332E+01 -0.11016866023E+01  0.39718213371E+02  0.25500000000E-02 0.  1.
         -2    1    1    2  502    0  0.38618317321E+02  0.92167413332E+01 -0.12940863114E+02  0.41758696079E+02  0.25500000000E-02 0.  1.
<mgrwt>
<rscale>  0 0.80257670E+02</rscale>
<asrwt>0</asrwt>
<pdfrwt beam="1">  1        1 0.51872585E-02 0.80257670E+02</pdfrwt>
<pdfrwt beam="2">  1       -1 0.73476507E-02 0.80257670E+02</pdfrwt>
<totfact> 0.12648647E+05</totfact>
</mgrwt>
</event>
<event>
 4    1  0.1893769E-002  0.7725185E+02  0.7818608E-02  0.1337036E+00
         -1   -1    0    0  501    0 -0.00000000000E+00  0.00000000000E+00  0.83549554617E+02  0.83549554769E+02  0.50400000000E-02 0.  1.
          1   -1    0    0    0  501  0.00000000000E+00 -0.00000000000E+00 -0.17857209099E+02  0.17857209810E+02  0.50400000000E-02 0.  1.
          2    1    1    2    0  502 -0.28359100269E+02  0.35279750149E+01 -0.12651809393E+01  0.28605696375E+02  0.25500000000E-02 0.  1.
         -2    1    1    2  502    0  0.28359100269E+02 -0.35279750149E+01  0.66957526457E+02  0.72801068203E+02  0.25500000000E-02 0.  1.
<mgrwt>
<rscale>  0 0.77251846E+02</rscale>
<asrwt>0</asrwt>
<pdfrwt beam="2">  1        1 0.27472630E-02 0.77251846E+02</pdfrwt>
<pdfrwt beam="1">  1       -1 0.12853778E-01 0.77251846E+02</pdfrwt>
<totfact> 0.12833640E+05</totfact>
</mgrwt>
</event>
<event>
 4    1  0.1893769E-002  0.8093312E+02  0.7818608E-02  0.1326424E+00
          1   -1    0    0    0  501  0.00000000000E+00  0.00000000000E+00  0.19213549539E+04  0.19213549539E+04  0.50400000000E-02 0.  1.
         -1   -1    0    0  501    0 -0.00000000000E+00 -0.00000000000E+00 -0.85227787320E+00  0.85229277525E+00  0.50400000000E-02 0.  1.
          2    1    1    2    0  502 -0.27532401646E+02  0.26473842875E+02  0.64280559519E+03  0.64393938434E+03  0.25500000000E-02 0.  1.
         -2    1    1    2  502    0  0.27532401646E+02 -0.26473842875E+02  0.12776970808E+04  0.12782678623E+04  0.25500000000E-02 0.  1.
<mgrwt>
<rscale>  0 0.80933124E+02</rscale>
<asrwt>0</asrwt>
<pdfrwt beam="1">  1        1 0.29559365E+00 0.80933124E+02</pdfrwt>
<pdfrwt beam="2">  1       -1 0.13112056E-03 0.80933124E+02</pdfrwt>
<totfact> 0.11575976E+05</totfact>
</mgrwt>
</event>
<event>
 4    1  0.1893769E-002  0.1007563E+03  0.7818608E-02  0.1278714E+00
         -1   -1    0    0  501    0 -0.00000000000E+00  0.00000000000E+00  0.36281492175E+02  0.36281492525E+02  0.50400000000E-02 0.  1.
          1   -1    0    0    0  501  0.00000000000E+00 -0.00000000000E+00 -0.69951868392E+02  0.69951868574E+02  0.50400000000E-02 0.  1.
          2    1    1    2    0  502  0.46266965426E+02  0.17284954974E+02 -0.63679723849E+01  0.49799124862E+02  0.25500000000E-02 0. -1.
         -2    1    1    2  502    0 -0.46266965426E+02 -0.17284954974E+02 -0.27302403832E+02  0.56434236237E+02  0.25500000000E-02 0. -1.
<mgrwt>
<rscale>  0 0.10075630E+03</rscale>
<asrwt>0</asrwt>
<pdfrwt beam="2">  1        1 0.10761826E-01 0.10075630E+03</pdfrwt>
<pdfrwt beam="1">  1       -1 0.55817681E-02 0.10075630E+03</pdfrwt>
<totfact> 0.74733370E+04</totfact>
</mgrwt>
</event>
<event>
 4    1  0.1893769E-002  0.1346424E+03  0.7818608E-02  0.1220725E+00
         -1   -1    0    0  501    0 -0.00000000000E+00  0.00000000000E+00  0.76909029595E+01  0.76909046109E+01  0.50400000000E-02 0.  1.
          1   -1    0    0    0  501  0.00000000000E+00 -0.00000000000E+00 -0.58928633614E+03  0.58928633616E+03  0.50400000000E-02 0.  1.
          2    1    1    2    0  502 -0.53335231686E+02 -0.85472320582E+01 -0.46894827231E+03  0.47204892143E+03  0.25500000000E-02 0. -1.
         -2    1    1    2  502    0  0.53335231686E+02  0.85472320582E+01 -0.11264716087E+03  0.12492831934E+03  0.25500000000E-02 0. -1.
<mgrwt>
<rscale>  0 0.13464241E+03</rscale>
<asrwt>0</asrwt>
<pdfrwt beam="2">  1        1 0.90659401E-01 0.13464241E+03</pdfrwt>
<pdfrwt beam="1">  1       -1 0.11832164E-02 0.13464241E+03</pdfrwt>
<totfact> 0.49412300E+04</totfact>
</mgrwt>
</event>
<event>
 4    1  0.1893769E-002  0.8307887E+02  0.7818608E-02  0.1320534E+00
          1   -1    0    0    0  501  0.00000000000E+00  0.00000000000E+00  0.93535178430E+02  0.93535178566E+02  0.50400000000E-02 0.  1.
         -1   -1    0    0  501    0 -0.00000000000E+00 -0.00000000000E+00 -0.18447866769E+02  0.18447867457E+02  0.50400000000E-02 0.  1.
          2    1    1    2    0  502 -0.26869117310E+02  0.18957993457E+02  0.33329676205E+01  0.33052438043E+02  0.25500000000E-02 0.  1.
         -2    1    1    2  502    0  0.26869117310E+02 -0.18957993457E+02  0.71754344041E+02  0.78930607980E+02  0.25500000000E-02 0.  1.
<mgrwt>
<rscale>  0 0.83078867E+02</rscale>
<asrwt>0</asrwt>
<pdfrwt beam="1">  1        1 0.14390028E-01 0.83078867E+02</pdfrwt>
<pdfrwt beam="2">  1       -1 0.28381334E-02 0.83078867E+02</pdfrwt>
<totfact> 0.13295828E+05</totfact>
</mgrwt>
</event>
<event>
 4    1  0.1893769E-002  0.7077345E+02  0.7818608E-02  0.1357482E+00
         -1   -1    0    0  501    0 -0.00000000000E+00  0.00000000000E+00  0.17902464420E+01  0.17902535364E+01  0.50400000000E-02 0.  1.
          1   -1    0    0    0  501  0.00000000000E+00 -0.00000000000E+00 -0.69946671823E+03  0.69946671825E+03  0.50400000000E-02 0.  1.
          2    1    1    2    0  502  0.11937079859E+01 -0.32159097263E+02 -0.49466050008E+03  0.49570620615E+03  0.25500000000E-02 0.  1.
         -2    1    1    2  502    0 -0.11937079859E+01  0.32159097263E+02 -0.20301597171E+03  0.20555076563E+03  0.25500000000E-02 0.  1.
<mgrwt>
<rscale>  0 0.70773450E+02</rscale>
<asrwt>0</asrwt>
<pdfrwt beam="2">  1        1 0.10761005E+00 0.70773450E+02</pdfrwt>
<pdfrwt beam="1">  1       -1 0.27542364E-03 0.70773450E+02</pdfrwt>
<totfact> 0.27552143E+05</totfact>
</mgrwt>
</event>
<event>
 4    1  0.1893769E-002  0.6633344E+02  0.7818608E-02  0.1373025E+00
         -1   -1    0    0  501    0 -0.00000000000E+00  0.00000000000E+00  0.10910928990E+04  0.10910928990E+04  0.50400000000E-02 0.  1.
          1   -1    0    0    0  501  0.00000000000E+00 -0.00000000000E+00 -0.10081858013E+01  0.10081983989E+01  0.50400000000E-02 0.  1.
          2    1    1    2    0  502 -0.29815818996E+02 -0.72530499643E+01  0.75227813726E+03  0.75290370274E+03  0.25500000000E-02 0. -1.
         -2    1    1    2  502    0  0.29815818996E+02  0.72530499643E+01  0.33780657594E+03  0.33919739467E+03  0.25500000000E-02 0. -1.
<mgrwt>
<rscale>  0 0.66333438E+02</rscale>
<asrwt>0</asrwt>
<pdfrwt beam="2">  1        1 0.15510739E-03 0.66333438E+02</pdfrwt>
<pdfrwt beam="1">  1       -1 0.16785946E+00 0.66333438E+02</pdfrwt>
<totfact> 0.52407293E+04</totfact>
</mgrwt>
</event>
<event>
 4    1  0.1893769E-002  0.4882830E+02  0.7818608E-02  0.1451766E+00
          1   -1    0    0    0  501  0.00000000000E+00  0.00000000000E+00  0.33674206764E+03  0.33674206768E+03  0.50400000000E-02 0.  1.
         -1   -1    0    0  501    0 -0.00000000000E+00 -0.00000000000E+00 -0.17700472828E+01  0.17700544582E+01  0.50400000000E-02 0.  1.
          2    1    1    2    0  502 -0.16668097644E+02  0.17341759425E+02  0.13849396123E+03  0.14056720600E+03  0.25500000000E-02 0. -1.
         -2    1    1    2  502    0  0.16668097644E+02 -0.17341759425E+02  0.19647805913E+03  0.19794491614E+03  0.25500000000E-02 0. -1.
<mgrwt>
<rscale>  0 0.48828295E+02</rscale>
<asrwt>0</asrwt>
<pdfrwt beam="1">  1        1 0.51806479E-01 0.48828295E+02</pdfrwt>
<pdfrwt beam="2">  1       -1 0.27231549E-03 0.48828295E+02</pdfrwt>
<totfact> 0.65304029E+05</totfact>
</mgrwt>
</event>
<event>
 4    1  0.1893769E-002  0.6879113E+02  0.7818608E-02  0.1364253E+00
         -1   -1    0    0  501    0 -0.00000000000E+00  0.00000000000E+00  0.37614653916E+01  0.37614687681E+01  0.50400000000E-02 0. -1.
          1   -1    0    0    0  501  0.00000000000E+00 -0.00000000000E+00 -0.31451952310E+03  0.31451952314E+03  0.50400000000E-02 0. -1.
          2    1    1    2    0  502  0.10103496661E+02 -0.32651248403E+02 -0.17322072975E+03  0.17656048790E+03  0.25500000000E-02 0.  1.
         -2    1    1    2  502    0 -0.10103496661E+02  0.32651248403E+02 -0.13753732796E+03  0.14172050400E+03  0.25500000000E-02 0.  1.
<mgrwt>
<rscale>  0 0.68791129E+02</rscale>
<asrwt>0</asrwt>
<pdfrwt beam="2">  1        1 0.48387598E-01 0.68791129E+02</pdfrwt>
<pdfrwt beam="1">  1       -1 0.57868750E-03 0.68791129E+02</pdfrwt>
<totfact> 0.27069226E+05</totfact>
</mgrwt>
</event>
<event>
 4    1  0.1893769E-002  0.4519807E+02  0.7818608E-02  0.1473109E+00
         -1   -1    0    0  501    0 -0.00000000000E+00  0.00000000000E+00  0.30992977606E+00  0.30997075295E+00  0.50400000000E-02 0.  1.
          1   -1    0    0    0  501  0.00000000000E+00 -0.00000000000E+00 -0.16477363829E+04  0.16477363829E+04  0.50400000000E-02 0.  1.
          2    1    1    2    0  502 -0.10360790082E+02 -0.19556037451E+02 -0.65689156433E+03  0.65726426334E+03  0.25500000000E-02 0.  1.
         -2    1    1    2  502    0  0.10360790082E+02  0.19556037451E+02 -0.99053488876E+03  0.99078209029E+03  0.25500000000E-02 0.  1.
<mgrwt>
<rscale>  0 0.45198068E+02</rscale>
<asrwt>0</asrwt>
<pdfrwt beam="2">  1        1 0.25349090E+00 0.45198068E+02</pdfrwt>
<pdfrwt beam="1">  1       -1 0.47685976E-04 0.45198068E+02</pdfrwt>
<totfact> 0.61223223E+05</totfact>
</mgrwt>
</event>
<event>
 4    1  0.1893769E-002  0.5582615E+02  0.7818608E-02  0.1416232E+00
          1   -1    0    0    0  501  0.00000000000E+00  0.00000000000E+00  0.16028683921E+03  0.16028683929E+03  0.50400000000E-02 0.  1.
         -1   -1    0    0  501    0 -0.00000000000E+00 -0.00000000000E+00 -0.48609075336E+01  0.48609101464E+01  0.50400000000E-02 0.  1.
          2    1    1    2    0  502  0.15669750973E+02 -0.21133000915E+02  0.10530488306E+03  0.10854152766E+03  0.25500000000E-02 0. -1.
         -2    1    1    2  502    0 -0.15669750973E+02  0.21133000915E+02  0.50121048620E+02  0.56606221782E+02  0.25500000000E-02 0. -1.
<mgrwt>
<rscale>  0 0.55826149E+02</rscale>
<asrwt>0</asrwt>
<pdfrwt beam="1">  1        1 0.24659517E-01 0.55826149E+02</pdfrwt>
<pdfrwt beam="2">  1       -1 0.74783205E-03 0.55826149E+02</pdfrwt>
<totfact> 0.40991002E+05</totfact>
</mgrwt>
</event>
<event>
 4    1  0.1893769E-002  0.5330455E+02  0.7818608E-02  0.1428291E+00
          1   -1    0    0    0  501  0.00000000000E+00  0.00000000000E+00  0.86517968921E+01  0.86517983601E+01  0.50400000000E-02 0.  1.
         -1   -1    0    0  501    0 -0.00000000000E+00 -0.00000000000E+00 -0.82103613648E+02  0.82103613802E+02  0.50400000000E-02 0.  1.
          2    1    1    2    0  502  0.24777534081E+02  0.49027650302E+01 -0.51210931080E+02  0.57100987457E+02  0.25500000000E-02 0. -1.
         -2    1    1    2  502    0 -0.24777534081E+02 -0.49027650302E+01 -0.22240885676E+02  0.33654424705E+02  0.25500000000E-02 0. -1.
<mgrwt>
<rscale>  0 0.53304554E+02</rscale>
<asrwt>0</asrwt>
<pdfrwt beam="1">  1        1 0.13310459E-02 0.53304554E+02</pdfrwt>
<pdfrwt beam="2">  1       -1 0.12631325E-01 0.53304554E+02</pdfrwt>
<totfact> 0.32755113E+05</totfact>
</mgrwt>
</event>
<event>
 4    1  0.1893769E-002  0.5293235E+02  0.7818608E-02  0.1430138E+00
         -1   -1    0    0  501    0 -0.00000000000E+00  0.00000000000E+00  0.11059522737E+03  0.11059522748E+03  0.50400000000E-02 0.  1.
          1   -1    0    0    0  501  0.00000000000E+00 -0.00000000000E+00 -0.63335298103E+01  0.63335318156E+01  0.50400000000E-02 0.  1.
          2    1    1    2    0  502  0.83181786293E+01  0.19456595749E+02  0.17014536389E+02  0.27152268209E+02  0.25500000000E-02 0.  1.
         -2    1    1    2  502    0 -0.83181786293E+01 -0.19456595749E+02  0.87247161168E+02  0.89776491089E+02  0.25500000000E-02 0.  1.
<mgrwt>
<rscale>  0 0.52932345E+02</rscale>
<asrwt>0</asrwt>
<pdfrwt beam="2">  1        1 0.97438937E-03 0.52932345E+02</pdfrwt>
<pdfrwt beam="1">  1       -1 0.17014650E-01 0.52932345E+02</pdfrwt>
<totfact> 0.31759633E+05</totfact>
</mgrwt>
</event>
<event>
 4    1  0.1893769E-002  0.1241048E+03  0.7818608E-02  0.1236475E+00
          1   -1    0    0    0  501  0.00000000000E+00  0.00000000000E+00  0.66812619777E+03  0.66812619779E+03  0.50400000000E-02 0. -1.
         -1   -1    0    0  501    0 -0.00000000000E+00 -0.00000000000E+00 -0.57631278714E+01  0.57631300752E+01  0.50400000000E-02 0. -1.
          2    1    1    2    0  502  0.46723823430E+02  0.90523417486E+01  0.11497210011E+03  0.12443329289E+03  0.25500000000E-02 0. -1.
         -2    1    1    2  502    0 -0.46723823430E+02 -0.90523417486E+01  0.54739096979E+03  0.54945603498E+03  0.25500000000E-02 0. -1.
<mgrwt>
<rscale>  0 0.12410475E+03</rscale>
<asrwt>0</asrwt>
<pdfrwt beam="1">  1        1 0.10278863E+00 0.12410475E+03</pdfrwt>
<pdfrwt beam="2">  1       -1 0.88663539E-03 0.12410475E+03</pdfrwt>
<totfact> 0.62124195E+04</totfact>
</mgrwt>
</event>
<event>
 4    1  0.1893769E-002  0.4431589E+02  0.7818608E-02  0.1478658E+00
          1   -1    0    0    0  501  0.00000000000E+00  0.00000000000E+00  0.60225343634E+00  0.60227452476E+00  0.50400000000E-02 0.  1.
         -1   -1    0    0  501    0 -0.00000000000E+00 -0.00000000000E+00 -0.81521480779E+03  0.81521480780E+03  0.50400000000E-02 0.  1.
          2    1    1    2    0  502 -0.20598497924E+02 -0.48820343323E+01 -0.28681130554E+03  0.28759147652E+03  0.25500000000E-02 0. -1.
         -2    1    1    2  502    0  0.20598497924E+02  0.48820343323E+01 -0.52780124881E+03  0.52822560581E+03  0.25500000000E-02 0. -1.
<mgrwt>
<rscale>  0 0.44315890E+02</rscale>
<asrwt>0</asrwt>
<pdfrwt beam="1">  1        1 0.92656651E-04 0.44315890E+02</pdfrwt>
<pdfrwt beam="2">  1       -1 0.12541678E+00 0.44315890E+02</pdfrwt>
<totfact> 0.20024235E+05</totfact>
</mgrwt>
</event>
<event>
 4    1  0.1893769E-002  0.5563160E+02  0.7818608E-02  0.1417135E+00
         -1   -1    0    0  501    0 -0.00000000000E+00  0.00000000000E+00  0.40006072992E+01  0.40006104739E+01  0.50400000000E-02 0. -1.
          1   -1    0    0    0  501  0.00000000000E+00 -0.00000000000E+00 -0.19340027164E+03  0.19340027171E+03  0.50400000000E-02 0. -1.
          2    1    1    2    0  502 -0.24269820547E+02 -0.26236810109E+01 -0.14201569522E+03  0.14409845797E+03  0.25500000000E-02 0.  1.
         -2    1    1    2  502    0  0.24269820547E+02  0.26236810109E+01 -0.47383969117E+02  0.53302424215E+02  0.25500000000E-02 0.  1.
<mgrwt>
<rscale>  0 0.55631605E+02</rscale>
<asrwt>0</asrwt>
<pdfrwt beam="2">  1        1 0.29753881E-01 0.55631605E+02</pdfrwt>
<pdfrwt beam="1">  1       -1 0.61547845E-03 0.55631605E+02</pdfrwt>
<totfact> 0.42699947E+05</totfact>
</mgrwt>
</event>
<event>
 4    1  0.1893769E-002  0.9995170E+02  0.7818608E-02  0.1280398E+00
          1   -1    0    0    0  501  0.00000000000E+00  0.00000000000E+00  0.19137209254E+03  0.19137209261E+03  0.50400000000E-02 0. -1.
         -1   -1    0    0  501    0 -0.00000000000E+00 -0.00000000000E+00 -0.13050939709E+02  0.13050940682E+02  0.50400000000E-02 0. -1.
          2    1    1    2    0  502 -0.14877177519E+01  0.49819571932E+02  0.96642466693E+02  0.10873807717E+03  0.25500000000E-02 0.  1.
         -2    1    1    2  502    0  0.14877177519E+01 -0.49819571932E+02  0.81678686140E+02  0.95684956120E+02  0.25500000000E-02 0.  1.
<mgrwt>
<rscale>  0 0.99951703E+02</rscale>
<asrwt>0</asrwt>
<pdfrwt beam="1">  1        1 0.29441858E-01 0.99951703E+02</pdfrwt>
<pdfrwt beam="2">  1       -1 0.20078371E-02 0.99951703E+02</pdfrwt>
<totfact> 0.91611395E+04</totfact>
</mgrwt>
</event>
<event>
 4    1  0.1893769E-002  0.5913589E+02  0.7818608E-02  0.1401494E+00
          1   -1    0    0    0  501  0.00000000000E+00  0.00000000000E+00  0.48159763518E+01  0.48159789891E+01  0.50400000000E-02 0. -1.
         -1   -1    0    0  501    0 -0.00000000000E+00 -0.00000000000E+00 -0.18153390885E+03  0.18153390892E+03  0.50400000000E-02 0. -1.
          2    1    1    2    0  502  0.25871127562E+02 -0.51359642952E+01 -0.46249267226E+02  0.53241789001E+02  0.25500000000E-02 0. -1.
         -2    1    1    2  502    0 -0.25871127562E+02  0.51359642952E+01 -0.13046866527E+03  0.13310809891E+03  0.25500000000E-02 0. -1.
<mgrwt>
<rscale>  0 0.59135886E+02</rscale>
<asrwt>0</asrwt>
<pdfrwt beam="1">  1        1 0.74091979E-03 0.59135886E+02</pdfrwt>
<pdfrwt beam="2">  1       -1 0.27928289E-01 0.59135886E+02</pdfrwt>
<totfact> 0.21630175E+05</totfact>
</mgrwt>
</event>
<event>
 4    1  0.1893769E-002  0.4231446E+02  0.7818608E-02  0.1491839E+00
          1   -1    0    0    0  501  0.00000000000E+00  0.00000000000E+00  0.18600708223E+03  0.18600708230E+03  0.50400000000E-02 0.  1.
         -1   -1    0    0  501    0 -0.00000000000E+00 -0.00000000000E+00 -0.24065094278E+01  0.24065147055E+01  0.50400000000E-02 0.  1.
          2    1    1    2    0  502 -0.16185442323E+01 -0.21072121398E+02  0.87405156406E+02  0.89923942076E+02  0.25500000000E-02 0.  1.
         -2    1    1    2  502    0  0.16185442323E+01  0.21072121398E+02  0.96195416396E+02  0.98489654928E+02  0.25500000000E-02 0.  1.
<mgrwt>
<rscale>  0 0.42314456E+02</rscale>
<asrwt>0</asrwt>
<pdfrwt beam="1">  1        1 0.28616473E-01 0.42314456E+02</pdfrwt>
<pdfrwt beam="2">  1       -1 0.37023265E-03 0.42314456E+02</pdfrwt>
<totfact> 0.83977724E+05</totfact>
</mgrwt>
</event>
<event>
 4    1  0.1893769E-002  0.8112756E+02  0.7818608E-02  0.1325882E+00
         -1   -1    0    0  501    0 -0.00000000000E+00  0.00000000000E+00  0.17082597291E+02  0.17082598035E+02  0.50400000000E-02 0.  1.
          1   -1    0    0    0  501  0.00000000000E+00 -0.00000000000E+00 -0.96321427256E+02  0.96321427387E+02  0.50400000000E-02 0.  1.
          2    1    1    2    0  502  0.26241692027E+02  0.78439987701E+01 -0.81444418059E+02  0.85926410123E+02  0.25500000000E-02 0. -1.
         -2    1    1    2  502    0 -0.26241692027E+02 -0.78439987701E+01  0.22055880949E+01  0.27477615299E+02  0.25500000000E-02 0. -1.
<mgrwt>
<rscale>  0 0.81127559E+02</rscale>
<asrwt>0</asrwt>
<pdfrwt beam="2">  1        1 0.14818681E-01 0.81127559E+02</pdfrwt>
<pdfrwt beam="1">  1       -1 0.26280920E-02 0.81127559E+02</pdfrwt>
<totfact> 0.14239444E+05</totfact>
</mgrwt>
</event>
<event>
 4    1  0.1893769E-002  0.4924022E+02  0.7818608E-02  0.1449483E+00
          1   -1    0    0    0  501  0.00000000000E+00  0.00000000000E+00  0.74105771910E+03  0.74105771911E+03  0.50400000000E-02 0.  1.
         -1   -1    0    0  501    0 -0.00000000000E+00 -0.00000000000E+00 -0.81794461039E+00  0.81796013794E+00  0.50400000000E-02 0.  1.
          2    1    1    2    0  502  0.20340855619E+02 -0.12946557667E+02  0.44512930055E+03  0.44578185021E+03  0.25500000000E-02 0.  1.
         -2    1    1    2  502    0 -0.20340855619E+02  0.12946557667E+02  0.29511047394E+03  0.29609382904E+03  0.25500000000E-02 0.  1.
<mgrwt>
<rscale>  0 0.49240225E+02</rscale>
<asrwt>0</asrwt>
<pdfrwt beam="1">  1        1 0.11400823E+00 0.49240225E+02</pdfrwt>
<pdfrwt beam="2">  1       -1 0.12583955E-03 0.49240225E+02</pdfrwt>
<totfact> 0.68809740E+05</totfact>
</mgrwt>
</event>
<event>
 4    1  0.1893769E-002  0.1004460E+03  0.7818608E-02  0.1279361E+00
          1   -1    0    0    0  501  0.00000000000E+00  0.00000000000E+00  0.14748860751E+04  0.14748860751E+04  0.50400000000E-02 0.  1.
         -1   -1    0    0  501    0 -0.00000000000E+00 -0.00000000000E+00 -0.17101960128E+01  0.17102034393E+01  0.50400000000E-02 0.  1.
          2    1    1    2    0  502  0.26638516171E+02 -0.40715479830E+02  0.55357598735E+03  0.55571011743E+03  0.25500000000E-02 0. -1.
         -2    1    1    2  502    0 -0.26638516171E+02  0.40715479830E+02  0.91959989177E+03  0.92088616115E+03  0.25500000000E-02 0. -1.
<mgrwt>
<rscale>  0 0.10044600E+03</rscale>
<asrwt>0</asrwt>
<pdfrwt beam="1">  1        1 0.22690613E+00 0.10044600E+03</pdfrwt>
<pdfrwt beam="2">  1       -1 0.26310697E-03 0.10044600E+03</pdfrwt>
<totfact> 0.86591231E+04</totfact>
</mgrwt>
</event>
<event>
 4    1  0.1893769E-002  0.6470172E+02  0.7818608E-02  0.1379097E+00
         -1   -1    0    0  501    0 -0.00000000000E+00  0.00000000000E+00  0.13022188055E+01  0.13022285586E+01  0.50400000000E-02 0.  1.
          1   -1    0    0    0  501  0.00000000000E+00 -0.00000000000E+00 -0.80368545000E+03  0.80368545002E+03  0.50400000000E-02 0.  1.
          2    1    1    2    0  502 -0.17369297609E+02 -0.11043126335E+02 -0.71171533974E+03  0.71201289874E+03  0.25500000000E-02 0. -1.
         -2    1    1    2  502    0  0.17369297609E+02  0.11043126335E+02 -0.90667891451E+02  0.92974779835E+02  0.25500000000E-02 0. -1.
<mgrwt>
<rscale>  0 0.64701723E+02</rscale>
<asrwt>0</asrwt>
<pdfrwt beam="2">  1        1 0.12364352E+00 0.64701723E+02</pdfrwt>
<pdfrwt beam="1">  1       -1 0.20034275E-03 0.64701723E+02</pdfrwt>
<totfact> 0.34443905E+05</totfact>
</mgrwt>
</event>
<event>
 4    1  0.1893769E-002  0.5368649E+02  0.7818608E-02  0.1426415E+00
         -1   -1    0    0  501    0 -0.00000000000E+00  0.00000000000E+00  0.24661165879E+02  0.24661166394E+02  0.50400000000E-02 0.  1.
          1   -1    0    0    0  501  0.00000000000E+00 -0.00000000000E+00 -0.29218401084E+02  0.29218401519E+02  0.50400000000E-02 0.  1.
          2    1    1    2    0  502 -0.97497872061E+01  0.21688098983E+02  0.10221208921E+02  0.25882525116E+02  0.25500000000E-02 0.  1.
         -2    1    1    2  502    0  0.97497872061E+01 -0.21688098983E+02 -0.14778444127E+02  0.27997042797E+02  0.25500000000E-02 0.  1.
<mgrwt>
<rscale>  0 0.53686492E+02</rscale>
<asrwt>0</asrwt>
<pdfrwt beam="2">  1        1 0.44951387E-02 0.53686492E+02</pdfrwt>
<pdfrwt beam="1">  1       -1 0.37940256E-02 0.53686492E+02</pdfrwt>
<totfact> 0.36853315E+05</totfact>
</mgrwt>
</event>
<event>
 4    1  0.1893769E-002  0.8752830E+02  0.7818608E-02  0.1308950E+00
          1   -1    0    0    0  501  0.00000000000E+00  0.00000000000E+00  0.36947483866E+02  0.36947484210E+02  0.50400000000E-02 0.  1.
         -1   -1    0    0  501    0 -0.00000000000E+00 -0.00000000000E+00 -0.51838465838E+02  0.51838466083E+02  0.50400000000E-02 0.  1.
          2    1    1    2    0  502 -0.13528166342E+02  0.15804360118E+02 -0.46502126290E+02  0.50943467091E+02  0.25500000000E-02 0. -1.
         -2    1    1    2  502    0  0.13528166342E+02 -0.15804360118E+02  0.31611144317E+02  0.37842483202E+02  0.25500000000E-02 0. -1.
<mgrwt>
<rscale>  0 0.87528302E+02</rscale>
<asrwt>0</asrwt>
<pdfrwt beam="1">  1        1 0.56842283E-02 0.87528302E+02</pdfrwt>
<pdfrwt beam="2">  1       -1 0.79751486E-02 0.87528302E+02</pdfrwt>
<totfact> 0.10051926E+05</totfact>
</mgrwt>
</event>
<event>
 4    1  0.1893769E-002  0.4835181E+02  0.7818608E-02  0.1454440E+00
         -1   -1    0    0  501    0 -0.00000000000E+00  0.00000000000E+00  0.12341736616E+02  0.12341737645E+02  0.50400000000E-02 0. -1.
          1   -1    0    0    0  501  0.00000000000E+00 -0.00000000000E+00 -0.47357536203E+02  0.47357536471E+02  0.50400000000E-02 0. -1.
          2    1    1    2    0  502 -0.29552041065E+01  0.23991602456E+02 -0.17976513185E+02  0.30124495888E+02  0.25500000000E-02 0.  1.
         -2    1    1    2  502    0  0.29552041065E+01 -0.23991602456E+02 -0.17039286402E+02  0.29574778229E+02  0.25500000000E-02 0.  1.
<mgrwt>
<rscale>  0 0.48351806E+02</rscale>
<asrwt>0</asrwt>
<pdfrwt beam="2">  1        1 0.72857748E-02 0.48351806E+02</pdfrwt>
<pdfrwt beam="1">  1       -1 0.18987288E-02 0.48351806E+02</pdfrwt>
<totfact> 0.50514640E+05</totfact>
</mgrwt>
</event>
<event>
 4    1  0.1893769E-002  0.4943820E+02  0.7818608E-02  0.1448395E+00
         -1   -1    0    0  501    0 -0.00000000000E+00  0.00000000000E+00  0.19637283894E+02  0.19637284541E+02  0.50400000000E-02 0.  1.
          1   -1    0    0    0  501  0.00000000000E+00 -0.00000000000E+00 -0.31116010614E+02  0.31116011022E+02  0.50400000000E-02 0.  1.
          2    1    1    2    0  502  0.12040886268E+02 -0.18574135939E+02  0.55556938389E+01  0.22822077217E+02  0.25500000000E-02 0.  1.
         -2    1    1    2  502    0 -0.12040886268E+02  0.18574135939E+02 -0.17034420559E+02  0.27931218345E+02  0.25500000000E-02 0.  1.
<mgrwt>
<rscale>  0 0.49438202E+02</rscale>
<asrwt>0</asrwt>
<pdfrwt beam="2">  1        1 0.47870786E-02 0.49438202E+02</pdfrwt>
<pdfrwt beam="1">  1       -1 0.30211207E-02 0.49438202E+02</pdfrwt>
<totfact> 0.45924367E+05</totfact>
</mgrwt>
</event>
<event>
 4    1  0.1893769E-002  0.5627876E+02  0.7818608E-02  0.1414147E+00
         -1   -1    0    0  501    0 -0.00000000000E+00  0.00000000000E+00  0.28579661824E+02  0.28579662269E+02  0.50400000000E-02 0. -1.
          1   -1    0    0    0  501  0.00000000000E+00 -0.00000000000E+00 -0.27705882825E+02  0.27705883284E+02  0.50400000000E-02 0. -1.
          2    1    1    2    0  502  0.17385857338E+02 -0.21958799464E+02 -0.22778199517E+01  0.28100629521E+02  0.25500000000E-02 0. -1.
         -2    1    1    2  502    0 -0.17385857338E+02  0.21958799464E+02  0.31515989504E+01  0.28184916031E+02  0.25500000000E-02 0. -1.
<mgrwt>
<rscale>  0 0.56278763E+02</rscale>
<asrwt>0</asrwt>
<pdfrwt beam="2">  1        1 0.42624435E-02 0.56278763E+02</pdfrwt>
<pdfrwt beam="1">  1       -1 0.43968712E-02 0.56278763E+02</pdfrwt>
<totfact> 0.32382390E+05</totfact>
</mgrwt>
</event>
<event>
 4    1  0.1893769E-002  0.8817373E+02  0.7818608E-02  0.1307336E+00
          1   -1    0    0    0  501  0.00000000000E+00  0.00000000000E+00  0.33518324831E+02  0.33518325210E+02  0.50400000000E-02 0.  1.
         -1   -1    0    0  501    0 -0.00000000000E+00 -0.00000000000E+00 -0.57987727571E+02  0.57987727791E+02  0.50400000000E-02 0.  1.
          2    1    1    2    0  502 -0.34115248605E+02  0.27910408642E+02 -0.11300450456E+02  0.45503200821E+02  0.25500000000E-02 0.  1.
         -2    1    1    2  502    0  0.34115248605E+02 -0.27910408642E+02 -0.13168952284E+02  0.46002852180E+02  0.25500000000E-02 0.  1.
<mgrwt>
<rscale>  0 0.88173727E+02</rscale>
<asrwt>0</asrwt>
<pdfrwt beam="1">  1        1 0.51566654E-02 0.88173727E+02</pdfrwt>
<pdfrwt beam="2">  1       -1 0.89211889E-02 0.88173727E+02</pdfrwt>
<totfact> 0.97033267E+04</totfact>
</mgrwt>
</event>
<event>
 4    1  0.1893769E-002  0.1239655E+03  0.7818608E-02  0.1236695E+00
         -1   -1    0    0  501    0 -0.00000000000E+00  0.00000000000E+00  0.18277601026E+02  0.18277601721E+02  0.50400000000E-02 0. -1.
          1   -1    0    0    0  501  0.00000000000E+00 -0.00000000000E+00 -0.21019501855E+03  0.21019501861E+03  0.50400000000E-02 0. -1.
          2    1    1    2    0  502  0.40183322605E+02  0.13695073181E+02 -0.17919381353E+03  0.18415394989E+03  0.25500000000E-02 0.  1.
         -2    1    1    2  502    0 -0.40183322605E+02 -0.13695073181E+02 -0.12723603996E+02  0.44318670447E+02  0.25500000000E-02 0.  1.
<mgrwt>
<rscale>  0 0.12396549E+03</rscale>
<asrwt>0</asrwt>
<pdfrwt beam="2">  1        1 0.32337694E-01 0.12396549E+03</pdfrwt>
<pdfrwt beam="1">  1       -1 0.28119388E-02 0.12396549E+03</pdfrwt>
<totfact> 0.51722610E+04</totfact>
</mgrwt>
</event>
<event>
 4    1  0.1893769E-002  0.4448861E+02  0.7818608E-02  0.1477560E+00
         -1   -1    0    0  501    0 -0.00000000000E+00  0.00000000000E+00  0.95892344280E+00  0.95893668756E+00  0.50400000000E-02 0. -1.
          1   -1    0    0    0  501  0.00000000000E+00 -0.00000000000E+00 -0.51600122799E+03  0.51600122801E+03  0.50400000000E-02 0. -1.
          2    1    1    2    0  502 -0.87889961358E+01  0.18515396231E+02 -0.35798105874E+03  0.35856729462E+03  0.25500000000E-02 0. -1.
         -2    1    1    2  502    0  0.87889961358E+01 -0.18515396231E+02 -0.15706124581E+03  0.15839287008E+03  0.25500000000E-02 0. -1.
<mgrwt>
<rscale>  0 0.44488610E+02</rscale>
<asrwt>0</asrwt>
<pdfrwt beam="2">  1        1 0.79384583E-01 0.44488610E+02</pdfrwt>
<pdfrwt beam="1">  1       -1 0.14752812E-03 0.44488610E+02</pdfrwt>
<totfact> 0.87186507E+05</totfact>
</mgrwt>
</event>
<event>
 4    1  0.1893769E-002  0.6624349E+02  0.7818608E-02  0.1373354E+00
          1   -1    0    0    0  501  0.00000000000E+00  0.00000000000E+00  0.13861095732E+01  0.13861187361E+01  0.50400000000E-02 0.  1.
         -1   -1    0    0  501    0 -0.00000000000E+00 -0.00000000000E+00 -0.79145710687E+03  0.79145710688E+03  0.50400000000E-02 0.  1.
          2    1    1    2    0  502 -0.27560796121E+02  0.17648644836E+02 -0.45603762307E+03  0.45721043930E+03  0.25500000000E-02 0. -1.
         -2    1    1    2  502    0  0.27560796121E+02 -0.17648644836E+02 -0.33403337423E+03  0.33563278632E+03  0.25500000000E-02 0. -1.
<mgrwt>
<rscale>  0 0.66243488E+02</rscale>
<asrwt>0</asrwt>
<pdfrwt beam="1">  1        1 0.21324897E-03 0.66243488E+02</pdfrwt>
<pdfrwt beam="2">  1       -1 0.12176227E+00 0.66243488E+02</pdfrwt>
<totfact> 0.75490433E+04</totfact>
</mgrwt>
</event>
<event>
 4    1  0.1893769E-002  0.4374161E+02  0.7818608E-02  0.1482354E+00
         -1   -1    0    0  501    0 -0.00000000000E+00  0.00000000000E+00  0.77048502709E+01  0.77048519194E+01  0.50400000000E-02 0.  1.
          1   -1    0    0    0  501  0.00000000000E+00 -0.00000000000E+00 -0.62081932839E+02  0.62081933044E+02  0.50400000000E-02 0.  1.
          2    1    1    2    0  502 -0.45626200991E+00 -0.20226472159E+02 -0.40442515413E+02  0.45220740932E+02  0.25500000000E-02 0.  1.
         -2    1    1    2  502    0  0.45626200991E+00  0.20226472159E+02 -0.13934567155E+02  0.24566044031E+02  0.25500000000E-02 0.  1.
<mgrwt>
<rscale>  0 0.43741608E+02</rscale>
<asrwt>0</asrwt>
<pdfrwt beam="2">  1        1 0.95510664E-02 0.43741608E+02</pdfrwt>
<pdfrwt beam="1">  1       -1 0.11853618E-02 0.43741608E+02</pdfrwt>
<totfact> 0.66792407E+05</totfact>
</mgrwt>
</event>
<event>
 4    1  0.1893769E-002  0.7859602E+02  0.7818608E-02  0.1333084E+00
         -1   -1    0    0  501    0 -0.00000000000E+00  0.00000000000E+00  0.22860032101E+03  0.22860032106E+03  0.50400000000E-02 0.  1.
          1   -1    0    0    0  501  0.00000000000E+00 -0.00000000000E+00 -0.67556036814E+01  0.67556055615E+01  0.50400000000E-02 0.  1.
          2    1    1    2    0  502  0.31598221581E+01  0.20616587352E+02  0.21065794472E+03  0.21168797281E+03  0.25500000000E-02 0. -1.
         -2    1    1    2  502    0 -0.31598221581E+01 -0.20616587352E+02  0.11186772604E+02  0.23667953818E+02  0.25500000000E-02 0. -1.
<mgrwt>
<rscale>  0 0.78596015E+02</rscale>
<asrwt>0</asrwt>
<pdfrwt beam="2">  1        1 0.10393237E-02 0.78596015E+02</pdfrwt>
<pdfrwt beam="1">  1       -1 0.35169284E-01 0.78596015E+02</pdfrwt>
<totfact> 0.98044151E+04</totfact>
</mgrwt>
</event>
<event>
 4    1  0.1893769E-002  0.6465824E+02  0.7818608E-02  0.1379262E+00
         -1   -1    0    0  501    0 -0.00000000000E+00  0.00000000000E+00  0.10039600932E+01  0.10039727439E+01  0.50400000000E-02 0. -1.
          1   -1    0    0    0  501  0.00000000000E+00 -0.00000000000E+00 -0.10410428628E+04  0.10410428628E+04  0.50400000000E-02 0. -1.
          2    1    1    2    0  502 -0.13559870864E+02  0.26267887432E+02 -0.73095127902E+03  0.73154879831E+03  0.25500000000E-02 0.  1.
         -2    1    1    2  502    0  0.13559870864E+02 -0.26267887432E+02 -0.30908762368E+03  0.31049803724E+03  0.25500000000E-02 0.  1.
<mgrwt>
<rscale>  0 0.64658243E+02</rscale>
<asrwt>0</asrwt>
<pdfrwt beam="2">  1        1 0.16015958E+00 0.64658243E+02</pdfrwt>
<pdfrwt beam="1">  1       -1 0.15445721E-03 0.64658243E+02</pdfrwt>
<totfact> 0.32848630E+05</totfact>
</mgrwt>
</event>
<event>
 4    1  0.1893769E-002  0.4537582E+02  0.7818608E-02  0.1472009E+00
          1   -1    0    0    0  501  0.00000000000E+00  0.00000000000E+00  0.10665605701E+04  0.10665605701E+04  0.50400000000E-02 0. -1.
         -1   -1    0    0  501    0 -0.00000000000E+00 -0.00000000000E+00 -0.48260481519E+00  0.48263113166E+00  0.50400000000E-02 0. -1.
          2    1    1    2    0  502  0.19189099087E+02 -0.93761007235E+01  0.35301189081E+03  0.35365735938E+03  0.25500000000E-02 0. -1.
         -2    1    1    2  502    0 -0.19189099087E+02  0.93761007235E+01  0.71306607450E+03  0.71338584188E+03  0.25500000000E-02 0. -1.
<mgrwt>
<rscale>  0 0.45375822E+02</rscale>
<asrwt>0</asrwt>
<pdfrwt beam="1">  1        1 0.16408648E+00 0.45375822E+02</pdfrwt>
<pdfrwt beam="2">  1       -1 0.74248814E-04 0.45375822E+02</pdfrwt>
<totfact> 0.79143242E+05</totfact>
</mgrwt>
</event>
<event>
 4    1  0.1893769E-002  0.4690702E+02  0.7818608E-02  0.1462776E+00
         -1   -1    0    0  501    0 -0.00000000000E+00  0.00000000000E+00  0.51305170907E+00  0.51307646388E+00  0.50400000000E-02 0.  1.
          1   -1    0    0    0  501  0.00000000000E+00 -0.00000000000E+00 -0.10721215957E+04  0.10721215957E+04  0.50400000000E-02 0.  1.
          2    1    1    2    0  502  0.17224877057E+01 -0.21200899047E+02 -0.30986700513E+03  0.31059621047E+03  0.25500000000E-02 0. -1.
         -2    1    1    2  502    0 -0.17224877057E+01  0.21200899047E+02 -0.76174153883E+03  0.76203846167E+03  0.25500000000E-02 0. -1.
<mgrwt>
<rscale>  0 0.46907019E+02</rscale>
<asrwt>0</asrwt>
<pdfrwt beam="2">  1        1 0.16493999E+00 0.46907019E+02</pdfrwt>
<pdfrwt beam="1">  1       -1 0.78933795E-04 0.46907019E+02</pdfrwt>
<totfact> 0.72814247E+05</totfact>
</mgrwt>
</event>
<event>
 4    1  0.1893769E-002  0.7602494E+02  0.7818608E-02  0.1340726E+00
          1   -1    0    0    0  501  0.00000000000E+00  0.00000000000E+00  0.70165262547E+03  0.70165262549E+03  0.50400000000E-02 0. -1.
         -1   -1    0    0  501    0 -0.00000000000E+00 -0.00000000000E+00 -0.20593465124E+01  0.20593526798E+01  0.50400000000E-02 0. -1.
          2    1    1    2    0  502  0.85161808896E+00 -0.37914468877E+02  0.37378438515E+03  0.37570333881E+03  0.25500000000E-02 0. -1.
         -2    1    1    2  502    0 -0.85161808896E+00  0.37914468877E+02  0.32580889381E+03  0.32800863936E+03  0.25500000000E-02 0. -1.
<mgrwt>
<rscale>  0 0.76024945E+02</rscale>
<asrwt>0</asrwt>
<pdfrwt beam="1">  1        1 0.10794649E+00 0.76024945E+02</pdfrwt>
<pdfrwt beam="2">  1       -1 0.31682321E-03 0.76024945E+02</pdfrwt>
<totfact> 0.22892854E+05</totfact>
</mgrwt>
</event>
<event>
 4    1  0.1893769E-002  0.5169218E+02  0.7818608E-02  0.1436422E+00
         -1   -1    0    0  501    0 -0.00000000000E+00  0.00000000000E+00  0.14968772325E+01  0.14968857173E+01  0.50400000000E-02 0.  1.
          1   -1    0    0    0  501  0.00000000000E+00 -0.00000000000E+00 -0.44627464646E+03  0.44627464649E+03  0.50400000000E-02 0.  1.
          2    1    1    2    0  502  0.74299740865E+01  0.23916180310E+02 -0.16703701181E+03  0.16890397129E+03  0.25500000000E-02 0. -1.
         -2    1    1    2  502    0 -0.74299740865E+01 -0.23916180310E+02 -0.27774075742E+03  0.27886756092E+03  0.25500000000E-02 0. -1.
<mgrwt>
<rscale>  0 0.51692176E+02</rscale>
<asrwt>0</asrwt>
<pdfrwt beam="2">  1        1 0.68657533E-01 0.51692176E+02</pdfrwt>
<pdfrwt beam="1">  1       -1 0.23028981E-03 0.51692176E+02</pdfrwt>
<totfact> 0.59160449E+05</totfact>
</mgrwt>
</event>
<event>
 4    1  0.1893769E-002  0.6502934E+02  0.7818608E-02  0.1377861E+00
          1   -1    0    0    0  501  0.00000000000E+00  0.00000000000E+00  0.19310110174E+02  0.19310110832E+02  0.50400000000E-02 0. -1.
         -1   -1    0    0  501    0 -0.00000000000E+00 -0.00000000000E+00 -0.54748717586E+02  0.54748717818E+02  0.50400000000E-02 0. -1.
          2    1    1    2    0  502 -0.85118145927E+01 -0.31356751863E+02 -0.19117321067E+02  0.37698393154E+02  0.25500000000E-02 0. -1.
         -2    1    1    2  502    0  0.85118145927E+01  0.31356751863E+02 -0.16321286344E+02  0.36360435497E+02  0.25500000000E-02 0. -1.
<mgrwt>
<rscale>  0 0.65029341E+02</rscale>
<asrwt>0</asrwt>
<pdfrwt beam="1">  1        1 0.29707863E-02 0.65029341E+02</pdfrwt>
<pdfrwt beam="2">  1       -1 0.84228797E-02 0.65029341E+02</pdfrwt>
<totfact> 0.21062605E+05</totfact>
</mgrwt>
</event>
<event>
 4    1  0.1893769E-002  0.4407903E+02  0.7818608E-02  0.1480174E+00
          1   -1    0    0    0  501  0.00000000000E+00  0.00000000000E+00  0.32659320784E+03  0.32659320788E+03  0.50400000000E-02 0.  1.
         -1   -1    0    0  501    0 -0.00000000000E+00 -0.00000000000E+00 -0.14872901948E+01  0.14872987343E+01  0.50400000000E-02 0.  1.
          2    1    1    2    0  502  0.11737820807E+01  0.21708010477E+02  0.13558832018E+03  0.13732009342E+03  0.25500000000E-02 0.  1.
         -2    1    1    2  502    0 -0.11737820807E+01 -0.21708010477E+02  0.18951759747E+03  0.19076041319E+03  0.25500000000E-02 0.  1.
<mgrwt>
<rscale>  0 0.44079033E+02</rscale>
<asrwt>0</asrwt>
<pdfrwt beam="1">  1        1 0.50245097E-01 0.44079033E+02</pdfrwt>
<pdfrwt beam="2">  1       -1 0.22881459E-03 0.44079033E+02</pdfrwt>
<totfact> 0.83645479E+05</totfact>
</mgrwt>
</event>
<event>
 4    1  0.1893769E-002  0.1123302E+03  0.7818608E-02  0.1256314E+00
         -1   -1    0    0  501    0 -0.00000000000E+00  0.00000000000E+00  0.13394744088E+02  0.13394745037E+02  0.50400000000E-02 0. -1.
          1   -1    0    0    0  501  0.00000000000E+00 -0.00000000000E+00 -0.23550436597E+03  0.23550436603E+03  0.50400000000E-02 0. -1.
          2    1    1    2    0  502 -0.46497291607E+01 -0.41082659172E+02 -0.26822639000E+02  0.49283453971E+02  0.25500000000E-02 0.  1.
         -2    1    1    2  502    0  0.46497291607E+01  0.41082659172E+02 -0.19528698289E+03  0.19961565709E+03  0.25500000000E-02 0.  1.
<mgrwt>
<rscale>  0 0.11233024E+03</rscale>
<asrwt>0</asrwt>
<pdfrwt beam="2">  1        1 0.36231438E-01 0.11233024E+03</pdfrwt>
<pdfrwt beam="1">  1       -1 0.20607301E-02 0.11233024E+03</pdfrwt>
<totfact> 0.69509222E+04</totfact>
</mgrwt>
</event>
<event>
 4    1  0.1893769E-002  0.1349039E+03  0.7818608E-02  0.1220355E+00
         -1   -1    0    0  501    0 -0.00000000000E+00  0.00000000000E+00  0.40954259282E+01  0.40954290294E+01  0.50400000000E-02 0. -1.
          1   -1    0    0    0  501  0.00000000000E+00 -0.00000000000E+00 -0.11109376591E+04  0.11109376591E+04  0.50400000000E-02 0. -1.
          2    1    1    2    0  502  0.61723129337E+02  0.27034437754E+02 -0.57843549739E+03  0.58234717322E+03  0.25500000000E-02 0. -1.
         -2    1    1    2  502    0 -0.61723129337E+02 -0.27034437754E+02 -0.52840673576E+03  0.53268591489E+03  0.25500000000E-02 0. -1.
<mgrwt>
<rscale>  0 0.13490389E+03</rscale>
<asrwt>0</asrwt>
<pdfrwt beam="2">  1        1 0.17091325E+00 0.13490389E+03</pdfrwt>
<pdfrwt beam="1">  1       -1 0.63006665E-03 0.13490389E+03</pdfrwt>
<totfact> 0.45804912E+04</totfact>
</mgrwt>
</event>
<event>
 4    1  0.1893769E-002  0.4908643E+02  0.7818608E-02  0.1450332E+00
          1   -1    0    0    0  501  0.00000000000E+00  0.00000000000E+00  0.30588963438E+03  0.30588963442E+03  0.50400000000E-02 0. -1.
         -1   -1    0    0  501    0 -0.00000000000E+00 -0.00000000000E+00 -0.19692343395E+01  0.19692407891E+01  0.50400000000E-02 0. -1.
          2    1    1    2    0  502 -0.24340740566E+02 -0.28557058339E+01  0.14368084919E+03  0.14575600550E+03  0.25500000000E-02 0. -1.
         -2    1    1    2  502    0  0.24340740566E+02  0.28557058339E+01  0.16023955085E+03  0.16210286971E+03  0.25500000000E-02 0. -1.
<mgrwt>
<rscale>  0 0.49086429E+02</rscale>
<asrwt>0</asrwt>
<pdfrwt beam="1">  1        1 0.47059935E-01 0.49086429E+02</pdfrwt>
<pdfrwt beam="2">  1       -1 0.30295969E-03 0.49086429E+02</pdfrwt>
<totfact> 0.63409596E+05</totfact>
</mgrwt>
</event>
<event>
 4    1  0.1893769E-002  0.4968959E+02  0.7818608E-02  0.1447023E+00
          1   -1    0    0    0  501  0.00000000000E+00  0.00000000000E+00  0.13596124518E+01  0.13596217932E+01  0.50400000000E-02 0. -1.
         -1   -1    0    0  501    0 -0.00000000000E+00 -0.00000000000E+00 -0.45399833807E+03  0.45399833810E+03  0.50400000000E-02 0. -1.
          2    1    1    2    0  502  0.22511093471E+02  0.28716709748E+01 -0.13364543391E+03  0.13555846648E+03  0.25500000000E-02 0. -1.
         -2    1    1    2  502    0 -0.22511093471E+02 -0.28716709748E+01 -0.31899329170E+03  0.31979949341E+03  0.25500000000E-02 0. -1.
<mgrwt>
<rscale>  0 0.49689594E+02</rscale>
<asrwt>0</asrwt>
<pdfrwt beam="1">  1        1 0.20917223E-03 0.49689594E+02</pdfrwt>
<pdfrwt beam="2">  1       -1 0.69845778E-01 0.49689594E+02</pdfrwt>
<totfact> 0.23449039E+05</totfact>
</mgrwt>
</event>
<event>
 4    1  0.1893769E-002  0.5374006E+02  0.7818608E-02  0.1426153E+00
         -1   -1    0    0  501    0 -0.00000000000E+00  0.00000000000E+00  0.27184827113E+02  0.27184827580E+02  0.50400000000E-02 0.  1.
          1   -1    0    0    0  501  0.00000000000E+00 -0.00000000000E+00 -0.26558877921E+02  0.26558878400E+02  0.50400000000E-02 0.  1.
          2    1    1    2    0  502  0.22259143377E+02 -0.10384638758E+02 -0.10582182121E+02  0.26744957860E+02  0.25500000000E-02 0. -1.
         -2    1    1    2  502    0 -0.22259143377E+02  0.10384638758E+02  0.11208131312E+02  0.26998748120E+02  0.25500000000E-02 0. -1.
<mgrwt>
<rscale>  0 0.53740061E+02</rscale>
<asrwt>0</asrwt>
<pdfrwt beam="2">  1        1 0.40859813E-02 0.53740061E+02</pdfrwt>
<pdfrwt beam="1">  1       -1 0.41822812E-02 0.53740061E+02</pdfrwt>
<totfact> 0.36423091E+05</totfact>
</mgrwt>
</event>
<event>
 4    1  0.1893769E-002  0.5239066E+02  0.7818608E-02  0.1432858E+00
         -1   -1    0    0  501    0 -0.00000000000E+00  0.00000000000E+00  0.23336423059E+01  0.23336477483E+01  0.50400000000E-02 0. -1.
          1   -1    0    0    0  501  0.00000000000E+00 -0.00000000000E+00 -0.29404436860E+03  0.29404436865E+03  0.50400000000E-02 0. -1.
          2    1    1    2    0  502  0.11081105940E+02  0.21051549641E+02 -0.20788659132E+03  0.20924338342E+03  0.25500000000E-02 0. -1.
         -2    1    1    2  502    0 -0.11081105940E+02 -0.21051549641E+02 -0.83824134984E+02  0.87134632974E+02  0.25500000000E-02 0. -1.
<mgrwt>
<rscale>  0 0.52390655E+02</rscale>
<asrwt>0</asrwt>
<pdfrwt beam="2">  1        1 0.45237566E-01 0.52390655E+02</pdfrwt>
<pdfrwt beam="1">  1       -1 0.35902255E-03 0.52390655E+02</pdfrwt>
<totfact> 0.53518234E+05</totfact>
</mgrwt>
</event>
<event>
 4    1  0.1893769E-002  0.6642867E+02  0.7818608E-02  0.1372677E+00
          1   -1    0    0    0  501  0.00000000000E+00  0.00000000000E+00  0.90587172923E+03  0.90587172925E+03  0.50400000000E-02 0. -1.
         -1   -1    0    0  501    0 -0.00000000000E+00 -0.00000000000E+00 -0.12178184296E+01  0.12178288587E+01  0.50400000000E-02 0. -1.
          2    1    1    2    0  502  0.23787916246E+01 -0.27457833489E+02  0.19920975098E+03  0.20110722553E+03  0.25500000000E-02 0. -1.
         -2    1    1    2  502    0 -0.23787916246E+01  0.27457833489E+02  0.70544415983E+03  0.70598233258E+03  0.25500000000E-02 0. -1.
<mgrwt>
<rscale>  0 0.66428669E+02</rscale>
<asrwt>0</asrwt>
<pdfrwt beam="1">  1        1 0.13936458E+00 0.66428669E+02</pdfrwt>
<pdfrwt beam="2">  1       -1 0.18735790E-03 0.66428669E+02</pdfrwt>
<totfact> 0.31691671E+05</totfact>
</mgrwt>
</event>
<event>
 4    1  0.1893769E-002  0.4719132E+02  0.7818608E-02  0.1461108E+00
          1   -1    0    0    0  501  0.00000000000E+00  0.00000000000E+00  0.32088409719E+03  0.32088409723E+03  0.50400000000E-02 0. -1.
         -1   -1    0    0  501    0 -0.00000000000E+00 -0.00000000000E+00 -0.17350624530E+01  0.17350697730E+01  0.50400000000E-02 0. -1.
          2    1    1    2    0  502 -0.27478059109E+01  0.23287331695E+02  0.17753863766E+03  0.17908047945E+03  0.25500000000E-02 0.  1.
         -2    1    1    2  502    0  0.27478059109E+01 -0.23287331695E+02  0.14161039709E+03  0.14353868755E+03  0.25500000000E-02 0.  1.
<mgrwt>
<rscale>  0 0.47191319E+02</rscale>
<asrwt>0</asrwt>
<pdfrwt beam="1">  1        1 0.49366822E-01 0.47191319E+02</pdfrwt>
<pdfrwt beam="2">  1       -1 0.26693305E-03 0.47191319E+02</pdfrwt>
<totfact> 0.70491419E+05</totfact>
</mgrwt>
</event>
<event>
 4    1  0.1893769E-002  0.1129061E+03  0.7818608E-02  0.1255281E+00
          1   -1    0    0    0  501  0.00000000000E+00  0.00000000000E+00  0.66052090584E+02  0.66052090777E+02  0.50400000000E-02 0.  1.
         -1   -1    0    0  501    0 -0.00000000000E+00 -0.00000000000E+00 -0.48248991725E+02  0.48248991988E+02  0.50400000000E-02 0.  1.
          2    1    1    2    0  502  0.18223863945E+02  0.36815674553E+02 -0.30299529592E+02  0.51044731461E+02  0.25500000000E-02 0. -1.
         -2    1    1    2  502    0 -0.18223863945E+02 -0.36815674553E+02  0.48102628452E+02  0.63256351304E+02  0.25500000000E-02 0. -1.
<mgrwt>
<rscale>  0 0.11290610E+03</rscale>
<asrwt>0</asrwt>
<pdfrwt beam="1">  1        1 0.10161860E-01 0.11290610E+03</pdfrwt>
<pdfrwt beam="2">  1       -1 0.74229219E-02 0.11290610E+03</pdfrwt>
<totfact> 0.53631590E+04</totfact>
</mgrwt>
</event>
<event>
 4    1  0.1893769E-002  0.4177075E+02  0.7818608E-02  0.1495571E+00
         -1   -1    0    0  501    0 -0.00000000000E+00  0.00000000000E+00  0.63433901963E+00  0.63435904142E+00  0.50400000000E-02 0. -1.
          1   -1    0    0    0  501  0.00000000000E+00 -0.00000000000E+00 -0.68763243990E+03  0.68763243992E+03  0.50400000000E-02 0. -1.
          2    1    1    2    0  502  0.15022447667E+02 -0.14339037719E+02 -0.38003634803E+03  0.38060334703E+03  0.25500000000E-02 0. -1.
         -2    1    1    2  502    0 -0.15022447667E+02  0.14339037719E+02 -0.30696175285E+03  0.30766345193E+03  0.25500000000E-02 0. -1.
<mgrwt>
<rscale>  0 0.41770755E+02</rscale>
<asrwt>0</asrwt>
<pdfrwt beam="2">  1        1 0.10578901E+00 0.41770755E+02</pdfrwt>
<pdfrwt beam="1">  1       -1 0.97592710E-04 0.41770755E+02</pdfrwt>
<totfact> 0.10316896E+06</totfact>
</mgrwt>
</event>
<event>
 4    1  0.1893769E-002  0.4455065E+02  0.7818608E-02  0.1477166E+00
          1   -1    0    0    0  501  0.00000000000E+00  0.00000000000E+00  0.50572155793E+01  0.50572180908E+01  0.50400000000E-02 0.  1.
         -1   -1    0    0  501    0 -0.00000000000E+00 -0.00000000000E+00 -0.98115259193E+02  0.98115259323E+02  0.50400000000E-02 0.  1.
          2    1    1    2    0  502 -0.16968819058E+02  0.11693329321E+02 -0.26944656273E+02  0.33921811257E+02  0.25500000000E-02 0.  1.
         -2    1    1    2  502    0  0.16968819058E+02 -0.11693329321E+02 -0.66113387341E+02  0.69250666156E+02  0.25500000000E-02 0.  1.
<mgrwt>
<rscale>  0 0.44550652E+02</rscale>
<asrwt>0</asrwt>
<pdfrwt beam="1">  1        1 0.77803344E-03 0.44550652E+02</pdfrwt>
<pdfrwt beam="2">  1       -1 0.15094654E-01 0.44550652E+02</pdfrwt>
<totfact> 0.49588289E+05</totfact>
</mgrwt>
</event>
<event>
 4    1  0.1893769E-002  0.4224017E+02  0.7818608E-02  0.1492345E+00
          1   -1    0    0    0  501  0.00000000000E+00  0.00000000000E+00  0.40378935679E+00  0.40382080959E+00  0.50400000000E-02 0. -1.
         -1   -1    0    0  501    0 -0.00000000000E+00 -0.00000000000E+00 -0.11046366522E+04  0.11046366522E+04  0.50400000000E-02 0. -1.
          2    1    1    2    0  502  0.20081735851E+02 -0.10618782784E+01 -0.72095900862E+03  0.72123941644E+03  0.25500000000E-02 0. -1.
         -2    1    1    2  502    0 -0.20081735851E+02  0.10618782784E+01 -0.38327385425E+03  0.38380105661E+03  0.25500000000E-02 0. -1.
<mgrwt>
<rscale>  0 0.42240166E+02</rscale>
<asrwt>0</asrwt>
<pdfrwt beam="1">  1        1 0.62124744E-04 0.42240166E+02</pdfrwt>
<pdfrwt beam="2">  1       -1 0.16994168E+00 0.42240166E+02</pdfrwt>
<totfact> 0.15895730E+05</totfact>
</mgrwt>
</event>
<event>
 4    1  0.1893769E-002  0.4463817E+02  0.7818608E-02  0.1476613E+00
          1   -1    0    0    0  501  0.00000000000E+00  0.00000000000E+00  0.79601055065E+02  0.79601055225E+02  0.50400000000E-02 0.  1.
         -1   -1    0    0  501    0 -0.00000000000E+00 -0.00000000000E+00 -0.62579750602E+01  0.62579770897E+01  0.50400000000E-02 0.  1.
          2    1    1    2    0  502 -0.15524452195E+02  0.14126274315E+02  0.22075998258E+02  0.30461614330E+02  0.25500000000E-02 0. -1.
         -2    1    1    2  502    0  0.15524452195E+02 -0.14126274315E+02  0.51267081747E+02  0.55397417984E+02  0.25500000000E-02 0. -1.
<mgrwt>
<rscale>  0 0.44638168E+02</rscale>
<asrwt>0</asrwt>
<pdfrwt beam="1">  1        1 0.12246316E-01 0.44638168E+02</pdfrwt>
<pdfrwt beam="2">  1       -1 0.96276559E-03 0.44638168E+02</pdfrwt>
<totfact> 0.65235503E+05</totfact>
</mgrwt>
</event>
<event>
 4    1  0.1893769E-002  0.5252280E+02  0.7818608E-02  0.1432191E+00
          1   -1    0    0    0  501  0.00000000000E+00  0.00000000000E+00  0.22595417209E+04  0.22595417209E+04  0.50400000000E-02 0. -1.
         -1   -1    0    0  501    0 -0.00000000000E+00 -0.00000000000E+00 -0.30520082007E+00  0.30524243180E+00  0.50400000000E-02 0. -1.
          2    1    1    2    0  502 -0.21758438339E+02  0.10030579266E+02  0.15922607427E+04  0.15924409926E+04  0.25500000000E-02 0.  1.
         -2    1    1    2  502    0  0.21758438339E+02 -0.10030579266E+02  0.66697577741E+03  0.66740597077E+03  0.25500000000E-02 0.  1.
<mgrwt>
<rscale>  0 0.52522795E+02</rscale>
<asrwt>0</asrwt>
<pdfrwt beam="1">  1        1 0.34763241E+00 0.52522795E+02</pdfrwt>
<pdfrwt beam="2">  1       -1 0.46955742E-04 0.52522795E+02</pdfrwt>
<totfact> 0.27114656E+05</totfact>
</mgrwt>
</event>
<event>
 4    1  0.1893769E-002  0.7651235E+02  0.7818608E-02  0.1339251E+00
         -1   -1    0    0  501    0 -0.00000000000E+00  0.00000000000E+00  0.35172411782E+01  0.35172447892E+01  0.50400000000E-02 0.  1.
          1   -1    0    0    0  501  0.00000000000E+00 -0.00000000000E+00 -0.41610281939E+03  0.41610281942E+03  0.50400000000E-02 0.  1.
          2    1    1    2    0  502  0.23508518557E+02  0.18247154888E+02 -0.74448686769E+02  0.80176156520E+02  0.25500000000E-02 0. -1.
         -2    1    1    2  502    0 -0.23508518557E+02 -0.18247154888E+02 -0.33813689144E+03  0.33944390769E+03  0.25500000000E-02 0. -1.
<mgrwt>
<rscale>  0 0.76512345E+02</rscale>
<asrwt>0</asrwt>
<pdfrwt beam="2">  1        1 0.64015779E-01 0.76512345E+02</pdfrwt>
<pdfrwt beam="1">  1       -1 0.54111464E-03 0.76512345E+02</pdfrwt>
<totfact> 0.21531011E+05</totfact>
</mgrwt>
</event>
<event>
 4    1  0.1893769E-002  0.4638386E+02  0.7818608E-02  0.1465883E+00
          1   -1    0    0    0  501  0.00000000000E+00  0.00000000000E+00  0.82407046731E+00  0.82408587944E+00  0.50400000000E-02 0.  1.
         -1   -1    0    0  501    0 -0.00000000000E+00 -0.00000000000E+00 -0.65268767131E+03  0.65268767133E+03  0.50400000000E-02 0.  1.
          2    1    1    2    0  502 -0.50652945017E+01 -0.21669242242E+02 -0.41794671835E+03  0.41853873495E+03  0.25500000000E-02 0. -1.
         -2    1    1    2  502    0  0.50652945017E+01  0.21669242242E+02 -0.23391688249E+03  0.23497302226E+03  0.25500000000E-02 0. -1.
<mgrwt>
<rscale>  0 0.46383863E+02</rscale>
<asrwt>0</asrwt>
<pdfrwt beam="1">  1        1 0.12678178E-03 0.46383863E+02</pdfrwt>
<pdfrwt beam="2">  1       -1 0.10041308E+00 0.46383863E+02</pdfrwt>
<totfact> 0.21791734E+05</totfact>
</mgrwt>
</event>
<event>
 4    1  0.1893769E-002  0.8270972E+02  0.7818608E-02  0.1321533E+00
         -1   -1    0    0  501    0 -0.00000000000E+00  0.00000000000E+00  0.50650505034E+02  0.50650505285E+02  0.50400000000E-02 0.  1.
          1   -1    0    0    0  501  0.00000000000E+00 -0.00000000000E+00 -0.33765196591E+02  0.33765196967E+02  0.50400000000E-02 0.  1.
          2    1    1    2    0  502 -0.32042583055E+02 -0.18395448942E+02  0.27402818121E+02  0.46000370847E+02  0.25500000000E-02 0. -1.
         -2    1    1    2  502    0  0.32042583055E+02  0.18395448942E+02 -0.10517509679E+02  0.38415331405E+02  0.25500000000E-02 0. -1.
<mgrwt>
<rscale>  0 0.82709716E+02</rscale>
<asrwt>0</asrwt>
<pdfrwt beam="2">  1        1 0.51946457E-02 0.82709716E+02</pdfrwt>
<pdfrwt beam="1">  1       -1 0.77923854E-02 0.82709716E+02</pdfrwt>
<totfact> 0.11631121E+05</totfact>
</mgrwt>
</event>
<event>
 4    1  0.1893769E-002  0.4588532E+02  0.7818608E-02  0.1468889E+00
         -1   -1    0    0  501    0 -0.00000000000E+00  0.00000000000E+00  0.10444886274E+03  0.10444886286E+03  0.50400000000E-02 0. -1.
          1   -1    0    0    0  501  0.00000000000E+00 -0.00000000000E+00 -0.50394563707E+01  0.50394588909E+01  0.50400000000E-02 0. -1.
          2    1    1    2    0  502 -0.15148776362E+02  0.14516610730E+02  0.27557587391E+02  0.34635791339E+02  0.25500000000E-02 0. -1.
         -2    1    1    2  502    0  0.15148776362E+02 -0.14516610730E+02  0.71851818981E+02  0.74852530417E+02  0.25500000000E-02 0. -1.
<mgrwt>
<rscale>  0 0.45885319E+02</rscale>
<asrwt>0</asrwt>
<pdfrwt beam="2">  1        1 0.77530124E-03 0.45885319E+02</pdfrwt>
<pdfrwt beam="1">  1       -1 0.16069055E-01 0.45885319E+02</pdfrwt>
<totfact> 0.45651130E+05</totfact>
</mgrwt>
</event>
<event>
 4    1  0.1893769E-002  0.4898800E+02  0.7818608E-02  0.1450878E+00
         -1   -1    0    0  501    0 -0.00000000000E+00  0.00000000000E+00  0.23384954223E+02  0.23384954766E+02  0.50400000000E-02 0. -1.
          1   -1    0    0    0  501  0.00000000000E+00 -0.00000000000E+00 -0.25655642558E+02  0.25655643053E+02  0.50400000000E-02 0. -1.
          2    1    1    2    0  502  0.23688667899E+02 -0.60181817540E+01  0.47403466138E+00  0.24445781104E+02  0.25500000000E-02 0.  1.
         -2    1    1    2  502    0 -0.23688667899E+02  0.60181817540E+01 -0.27447229962E+01  0.24594816715E+02  0.25500000000E-02 0.  1.
<mgrwt>
<rscale>  0 0.48988001E+02</rscale>
<asrwt>0</asrwt>
<pdfrwt beam="2">  1        1 0.39470220E-02 0.48988001E+02</pdfrwt>
<pdfrwt beam="1">  1       -1 0.35976853E-02 0.48988001E+02</pdfrwt>
<totfact> 0.46227122E+05</totfact>
</mgrwt>
</event>
<event>
 4    1  0.1893769E-002  0.3003122E+03  0.7818608E-02  0.1085085E+00
         -1   -1    0    0  501    0 -0.00000000000E+00  0.00000000000E+00  0.23834481912E+02  0.23834482445E+02  0.50400000000E-02 0.  1.
          1   -1    0    0    0  501  0.00000000000E+00 -0.00000000000E+00 -0.94597634513E+03  0.94597634514E+03  0.50400000000E-02 0.  1.
          2    1    1    2    0  502 -0.99349157612E+02 -0.28460213529E+02 -0.81285608391E+03  0.81939932391E+03  0.25500000000E-02 0.  1.
         -2    1    1    2  502    0  0.99349157612E+02  0.28460213529E+02 -0.10928577930E+03  0.15041150367E+03  0.25500000000E-02 0.  1.
<mgrwt>
<rscale>  0 0.30031221E+03</rscale>
<asrwt>0</asrwt>
<pdfrwt beam="2">  1        1 0.14553479E+00 0.30031221E+03</pdfrwt>
<pdfrwt beam="1">  1       -1 0.36668441E-02 0.30031221E+03</pdfrwt>
<totfact> 0.49289236E+03</totfact>
</mgrwt>
</event>
<event>
 4    1  0.1893769E-002  0.4968623E+02  0.7818608E-02  0.1447041E+00
          1   -1    0    0    0  501  0.00000000000E+00  0.00000000000E+00  0.12397912045E+04  0.12397912045E+04  0.50400000000E-02 0. -1.
         -1   -1    0    0  501    0 -0.00000000000E+00 -0.00000000000E+00 -0.49779716123E+00  0.49782267458E+00  0.50400000000E-02 0. -1.
          2    1    1    2    0  502 -0.82303687070E+01 -0.23439700002E+02  0.62333731943E+03  0.62383216677E+03  0.25500000000E-02 0.  1.
         -2    1    1    2  502    0  0.82303687070E+01  0.23439700002E+02  0.61595608790E+03  0.61645686040E+03  0.25500000000E-02 0.  1.
<mgrwt>
<rscale>  0 0.49686230E+02</rscale>
<asrwt>0</asrwt>
<pdfrwt beam="1">  1        1 0.19073342E+00 0.49686230E+02</pdfrwt>
<pdfrwt beam="2">  1       -1 0.76587623E-04 0.49686230E+02</pdfrwt>
<totfact> 0.59468961E+05</totfact>
</mgrwt>
</event>
<event>
 4    1  0.1893769E-002  0.3190304E+03  0.7818608E-02  0.1076096E+00
         -1   -1    0    0  501    0 -0.00000000000E+00  0.00000000000E+00  0.10005242009E+04  0.10005242009E+04  0.50400000000E-02 0. -1.
          1   -1    0    0    0  501  0.00000000000E+00 -0.00000000000E+00 -0.25431763556E+02  0.25431764055E+02  0.50400000000E-02 0. -1.
          2    1    1    2    0  502 -0.30519779972E+01  0.86967472583E+02  0.91746716085E+03  0.92158485616E+03  0.25500000000E-02 0. -1.
         -2    1    1    2  502    0  0.30519779972E+01 -0.86967472583E+02  0.57625276502E+02  0.10437110882E+03  0.25500000000E-02 0. -1.
<mgrwt>
<rscale>  0 0.31903038E+03</rscale>
<asrwt>0</asrwt>
<pdfrwt beam="2">  1        1 0.39125793E-02 0.31903038E+03</pdfrwt>
<pdfrwt beam="1">  1       -1 0.15392679E+00 0.31903038E+03</pdfrwt>
<totfact> 0.82959486E+02</totfact>
</mgrwt>
</event>
<event>
 4    1  0.1893769E-002  0.5132736E+02  0.7818608E-02  0.1438311E+00
          1   -1    0    0    0  501  0.00000000000E+00  0.00000000000E+00  0.92019413095E+03  0.92019413097E+03  0.50400000000E-02 0. -1.
         -1   -1    0    0  501    0 -0.00000000000E+00 -0.00000000000E+00 -0.71573627728E+00  0.71575402214E+00  0.50400000000E-02 0. -1.
          2    1    1    2    0  502  0.22593591583E+02 -0.44901583214E+00  0.24150171282E+03  0.24255669296E+03  0.25500000000E-02 0.  1.
         -2    1    1    2  502    0 -0.22593591583E+02  0.44901583214E+00  0.67797668185E+03  0.67835319203E+03  0.25500000000E-02 0.  1.
<mgrwt>
<rscale>  0 0.51327361E+02</rscale>
<asrwt>0</asrwt>
<pdfrwt beam="1">  1        1 0.14156798E+00 0.51327361E+02</pdfrwt>
<pdfrwt beam="2">  1       -1 0.11011491E-03 0.51327361E+02</pdfrwt>
<totfact> 0.60586396E+05</totfact>
</mgrwt>
</event>
<event>
 4    1  0.1893769E-002  0.4221895E+02  0.7818608E-02  0.1492490E+00
          1   -1    0    0    0  501  0.00000000000E+00  0.00000000000E+00  0.87829977074E+02  0.87829977219E+02  0.50400000000E-02 0. -1.
         -1   -1    0    0  501    0 -0.00000000000E+00 -0.00000000000E+00 -0.50735508545E+01  0.50735533579E+01  0.50400000000E-02 0. -1.
          2    1    1    2    0  502 -0.12970812936E+02  0.16345284368E+02  0.48405985199E+02  0.52711950437E+02  0.25500000000E-02 0. -1.
         -2    1    1    2  502    0  0.12970812936E+02 -0.16345284368E+02  0.34350441021E+02  0.40191580140E+02  0.25500000000E-02 0. -1.
<mgrwt>
<rscale>  0 0.42218952E+02</rscale>
<asrwt>0</asrwt>
<pdfrwt beam="1">  1        1 0.13512304E-01 0.42218952E+02</pdfrwt>
<pdfrwt beam="2">  1       -1 0.78054652E-03 0.42218952E+02</pdfrwt>
<totfact> 0.75802993E+05</totfact>
</mgrwt>
</event>
<event>
 4    1  0.1893769E-002  0.1567023E+03  0.7818608E-02  0.1192471E+00
          1   -1    0    0    0  501  0.00000000000E+00  0.00000000000E+00  0.50487781078E+03  0.50487781080E+03  0.50400000000E-02 0. -1.
         -1   -1    0    0  501    0 -0.00000000000E+00 -0.00000000000E+00 -0.12159185134E+02  0.12159186179E+02  0.50400000000E-02 0. -1.
          2    1    1    2    0  502 -0.24019543610E+02  0.72649041659E+02  0.19074743368E+03  0.20552227420E+03  0.25500000000E-02 0.  1.
         -2    1    1    2  502    0  0.24019543610E+02 -0.72649041659E+02  0.30197119196E+03  0.31151472278E+03  0.25500000000E-02 0.  1.
<mgrwt>
<rscale>  0 0.15670230E+03</rscale>
<asrwt>0</asrwt>
<pdfrwt beam="1">  1        1 0.77673515E-01 0.15670230E+03</pdfrwt>
<pdfrwt beam="2">  1       -1 0.18706438E-02 0.15670230E+03</pdfrwt>
<totfact> 0.31927406E+04</totfact>
</mgrwt>
</event>
<event>
 4    1  0.1893769E-002  0.4682421E+02  0.7818608E-02  0.1463265E+00
         -1   -1    0    0  501    0 -0.00000000000E+00  0.00000000000E+00  0.25022875818E+02  0.25022876325E+02  0.50400000000E-02 0.  1.
          1   -1    0    0    0  501  0.00000000000E+00 -0.00000000000E+00 -0.21905021104E+02  0.21905021684E+02  0.50400000000E-02 0.  1.
          2    1    1    2    0  502  0.14546605348E+02 -0.16998004896E+02 -0.53549535787E+01  0.23004595887E+02  0.25500000000E-02 0. -1.
         -2    1    1    2  502    0 -0.14546605348E+02  0.16998004896E+02  0.84728082919E+01  0.23923302122E+02  0.25500000000E-02 0. -1.
<mgrwt>
<rscale>  0 0.46824209E+02</rscale>
<asrwt>0</asrwt>
<pdfrwt beam="2">  1        1 0.33700033E-02 0.46824209E+02</pdfrwt>
<pdfrwt beam="1">  1       -1 0.38496733E-02 0.46824209E+02</pdfrwt>
<totfact> 0.51250682E+05</totfact>
</mgrwt>
</event>
<event>
 4    1  0.1893769E-002  0.5401404E+02  0.7818608E-02  0.1424820E+00
         -1   -1    0    0  501    0 -0.00000000000E+00  0.00000000000E+00  0.42546071818E+01  0.42546101670E+01  0.50400000000E-02 0.  1.
          1   -1    0    0    0  501  0.00000000000E+00 -0.00000000000E+00 -0.17143270818E+03  0.17143270825E+03  0.50400000000E-02 0.  1.
          2    1    1    2    0  502 -0.28342324715E+01 -0.22535927802E+02 -0.36065322136E+02  0.42621689114E+02  0.25500000000E-02 0.  1.
         -2    1    1    2  502    0  0.28342324715E+01  0.22535927802E+02 -0.13111277886E+03  0.13306562931E+03  0.25500000000E-02 0.  1.
<mgrwt>
<rscale>  0 0.54014039E+02</rscale>
<asrwt>0</asrwt>
<pdfrwt beam="2">  1        1 0.26374258E-01 0.54014039E+02</pdfrwt>
<pdfrwt beam="1">  1       -1 0.65455532E-03 0.54014039E+02</pdfrwt>
<totfact> 0.45073851E+05</totfact>
</mgrwt>
</event>
<event>
 4    1  0.1893769E-002  0.6957080E+02  0.7818608E-02  0.1361559E+00
          1   -1    0    0    0  501  0.00000000000E+00  0.00000000000E+00  0.21069479573E+02  0.21069480176E+02  0.50400000000E-02 0. -1.
         -1   -1    0    0  501    0 -0.00000000000E+00 -0.00000000000E+00 -0.57430185582E+02  0.57430185803E+02  0.50400000000E-02 0. -1.
          2    1    1    2    0  502  0.13782461119E+01  0.27388763336E+02  0.59667012529E+01  0.28065021820E+02  0.25500000000E-02 0.  1.
         -2    1    1    2  502    0 -0.13782461119E+01 -0.27388763336E+02 -0.42327407262E+02  0.50434644159E+02  0.25500000000E-02 0.  1.
<mgrwt>
<rscale>  0 0.69570803E+02</rscale>
<asrwt>0</asrwt>
<pdfrwt beam="1">  1        1 0.32414585E-02 0.69570803E+02</pdfrwt>
<pdfrwt beam="2">  1       -1 0.88354132E-02 0.69570803E+02</pdfrwt>
<totfact> 0.17670648E+05</totfact>
</mgrwt>
</event>
<event>
 4    1  0.1893769E-002  0.6473737E+02  0.7818608E-02  0.1378962E+00
         -1   -1    0    0  501    0 -0.00000000000E+00  0.00000000000E+00  0.56622413188E+01  0.56622435619E+01  0.50400000000E-02 0. -1.
          1   -1    0    0    0  501  0.00000000000E+00 -0.00000000000E+00 -0.18503829229E+03  0.18503829235E+03  0.50400000000E-02 0. -1.
          2    1    1    2    0  502  0.30049951588E+02  0.53089998160E+01 -0.57886591820E+02  0.65437318012E+02  0.25500000000E-02 0.  1.
         -2    1    1    2  502    0 -0.30049951588E+02 -0.53089998160E+01 -0.12148945915E+03  0.12526321790E+03  0.25500000000E-02 0.  1.
<mgrwt>
<rscale>  0 0.64737367E+02</rscale>
<asrwt>0</asrwt>
<pdfrwt beam="2">  1        1 0.28467425E-01 0.64737367E+02</pdfrwt>
<pdfrwt beam="1">  1       -1 0.87111437E-03 0.64737367E+02</pdfrwt>
<totfact> 0.28744406E+05</totfact>
</mgrwt>
</event>
<event>
 4    1  0.1893769E-002  0.5054268E+02  0.7818608E-02  0.1442436E+00
         -1   -1    0    0  501    0 -0.00000000000E+00  0.00000000000E+00  0.29185057821E+03  0.29185057826E+03  0.50400000000E-02 0. -1.
          1   -1    0    0    0  501  0.00000000000E+00 -0.00000000000E+00 -0.21882424608E+01  0.21882482649E+01  0.50400000000E-02 0. -1.
          2    1    1    2    0  502 -0.23266049151E+02 -0.95793398928E+01  0.13110366595E+03  0.13349623226E+03  0.25500000000E-02 0. -1.
         -2    1    1    2  502    0  0.23266049151E+02  0.95793398928E+01  0.15855866980E+03  0.16054259426E+03  0.25500000000E-02 0. -1.
<mgrwt>
<rscale>  0 0.50542682E+02</rscale>
<asrwt>0</asrwt>
<pdfrwt beam="2">  1        1 0.33665334E-03 0.50542682E+02</pdfrwt>
<pdfrwt beam="1">  1       -1 0.44900062E-01 0.50542682E+02</pdfrwt>
<totfact> 0.27599749E+05</totfact>
</mgrwt>
</event>
<event>
 4    1  0.1893769E-002  0.5547786E+02  0.7818608E-02  0.1417852E+00
          1   -1    0    0    0  501  0.00000000000E+00  0.00000000000E+00  0.23814901554E+02  0.23814902087E+02  0.50400000000E-02 0. -1.
         -1   -1    0    0  501    0 -0.00000000000E+00 -0.00000000000E+00 -0.32309524394E+02  0.32309524788E+02  0.50400000000E-02 0. -1.
          2    1    1    2    0  502  0.85906393606E+00 -0.27498814741E+02 -0.78276766687E+01  0.28604113892E+02  0.25500000000E-02 0. -1.
         -2    1    1    2  502    0 -0.85906393606E+00  0.27498814741E+02 -0.66694617200E+00  0.27520312983E+02  0.25500000000E-02 0. -1.
<mgrwt>
<rscale>  0 0.55477858E+02</rscale>
<asrwt>0</asrwt>
<pdfrwt beam="1">  1        1 0.36638311E-02 0.55477858E+02</pdfrwt>
<pdfrwt beam="2">  1       -1 0.49706961E-02 0.55477858E+02</pdfrwt>
<totfact> 0.33129057E+05</totfact>
</mgrwt>
</event>
<event>
 4    1  0.1893769E-002  0.5690673E+02  0.7818608E-02  0.1411291E+00
          1   -1    0    0    0  501  0.00000000000E+00  0.00000000000E+00  0.90070917942E+02  0.90070918083E+02  0.50400000000E-02 0.  1.
         -1   -1    0    0  501    0 -0.00000000000E+00 -0.00000000000E+00 -0.89884043583E+01  0.89884057713E+01  0.50400000000E-02 0.  1.
          2    1    1    2    0  502  0.21363377049E+01  0.25457816568E+02  0.62347662947E+02  0.67378746238E+02  0.25500000000E-02 0. -1.
         -2    1    1    2  502    0 -0.21363377049E+01 -0.25457816568E+02  0.18734850637E+02  0.31680577616E+02  0.25500000000E-02 0. -1.
<mgrwt>
<rscale>  0 0.56906727E+02</rscale>
<asrwt>0</asrwt>
<pdfrwt beam="1">  1        1 0.13857064E-01 0.56906727E+02</pdfrwt>
<pdfrwt beam="2">  1       -1 0.13828316E-02 0.56906727E+02</pdfrwt>
<totfact> 0.35810620E+05</totfact>
</mgrwt>
</event>
<event>
 4    1  0.1893769E-002  0.7180191E+02  0.7818608E-02  0.1354071E+00
          1   -1    0    0    0  501  0.00000000000E+00  0.00000000000E+00  0.99212654663E+01  0.99212667464E+01  0.50400000000E-02 0. -1.
         -1   -1    0    0  501    0 -0.00000000000E+00 -0.00000000000E+00 -0.12991070908E+03  0.12991070918E+03  0.50400000000E-02 0. -1.
          2    1    1    2    0  502 -0.29035926325E+02  0.95192054478E+01 -0.23292381014E+02  0.38421807736E+02  0.25500000000E-02 0. -1.
         -2    1    1    2  502    0  0.29035926325E+02 -0.95192054478E+01 -0.96697062599E+02  0.10141016819E+03  0.25500000000E-02 0. -1.
<mgrwt>
<rscale>  0 0.71801914E+02</rscale>
<asrwt>0</asrwt>
<pdfrwt beam="1">  1        1 0.15263487E-02 0.71801914E+02</pdfrwt>
<pdfrwt beam="2">  1       -1 0.19986262E-01 0.71801914E+02</pdfrwt>
<totfact> 0.14276704E+05</totfact>
</mgrwt>
</event>
<event>
 4    1  0.1893769E-002  0.1412569E+03  0.7818608E-02  0.1211648E+00
         -1   -1    0    0  501    0 -0.00000000000E+00  0.00000000000E+00  0.73893913110E+01  0.73893930298E+01  0.50400000000E-02 0. -1.
          1   -1    0    0    0  501  0.00000000000E+00 -0.00000000000E+00 -0.67507324446E+03  0.67507324448E+03  0.50400000000E-02 0. -1.
          2    1    1    2    0  502  0.90402995692E+01  0.65557234585E+02 -0.45306027752E+03  0.45786798654E+03  0.25500000000E-02 0.  1.
         -2    1    1    2  502    0 -0.90402995692E+01 -0.65557234585E+02 -0.21462357564E+03  0.22459465098E+03  0.25500000000E-02 0.  1.
<mgrwt>
<rscale>  0 0.14125694E+03</rscale>
<asrwt>0</asrwt>
<pdfrwt beam="2">  1        1 0.10385737E+00 0.14125694E+03</pdfrwt>
<pdfrwt beam="1">  1       -1 0.11368301E-02 0.14125694E+03</pdfrwt>
<totfact> 0.43575918E+04</totfact>
</mgrwt>
</event>
<event>
 4    1  0.1893769E-002  0.5157821E+02  0.7818608E-02  0.1437010E+00
         -1   -1    0    0  501    0 -0.00000000000E+00  0.00000000000E+00  0.80488474357E+01  0.80488490137E+01  0.50400000000E-02 0. -1.
          1   -1    0    0    0  501  0.00000000000E+00 -0.00000000000E+00 -0.82630204044E+02  0.82630204198E+02  0.50400000000E-02 0. -1.
          2    1    1    2    0  502  0.22043599972E+02  0.87459774900E+01 -0.19477021663E+02  0.30688219260E+02  0.25500000000E-02 0.  1.
         -2    1    1    2  502    0 -0.22043599972E+02 -0.87459774900E+01 -0.55104334945E+02  0.59990833952E+02  0.25500000000E-02 0.  1.
<mgrwt>
<rscale>  0 0.51578212E+02</rscale>
<asrwt>0</asrwt>
<pdfrwt beam="2">  1        1 0.12712339E-01 0.51578212E+02</pdfrwt>
<pdfrwt beam="1">  1       -1 0.12382844E-02 0.51578212E+02</pdfrwt>
<totfact> 0.45540069E+05</totfact>
</mgrwt>
</event>
<event>
 4    1  0.1893769E-002  0.4355440E+02  0.7818608E-02  0.1483573E+00
         -1   -1    0    0  501    0 -0.00000000000E+00  0.00000000000E+00  0.33627286508E+01  0.33627324277E+01  0.50400000000E-02 0.  1.
          1   -1    0    0    0  501  0.00000000000E+00 -0.00000000000E+00 -0.14103017612E+03  0.14103017621E+03  0.50400000000E-02 0.  1.
          2    1    1    2    0  502 -0.17615938360E+02 -0.97527453669E+01 -0.96333992191E+02  0.98415828932E+02  0.25500000000E-02 0. -1.
         -2    1    1    2  502    0  0.17615938360E+02  0.97527453669E+01 -0.41333455279E+02  0.45977079706E+02  0.25500000000E-02 0. -1.
<mgrwt>
<rscale>  0 0.43554402E+02</rscale>
<asrwt>0</asrwt>
<pdfrwt beam="2">  1        1 0.21696946E-01 0.43554402E+02</pdfrwt>
<pdfrwt beam="1">  1       -1 0.51734328E-03 0.43554402E+02</pdfrwt>
<totfact> 0.74852417E+05</totfact>
</mgrwt>
</event>
<event>
 4    1  0.1893769E-002  0.6454712E+02  0.7818608E-02  0.1379683E+00
          1   -1    0    0    0  501  0.00000000000E+00  0.00000000000E+00  0.35307264198E+02  0.35307264558E+02  0.50400000000E-02 0.  1.
         -1   -1    0    0  501    0 -0.00000000000E+00 -0.00000000000E+00 -0.29500517550E+02  0.29500517981E+02  0.50400000000E-02 0.  1.
          2    1    1    2    0  502 -0.25889748453E+02  0.18979405329E+02 -0.43958966889E+00  0.32104363367E+02  0.25500000000E-02 0.  1.
         -2    1    1    2  502    0  0.25889748453E+02 -0.18979405329E+02  0.62463363168E+01  0.32703419172E+02  0.25500000000E-02 0.  1.
<mgrwt>
<rscale>  0 0.64547117E+02</rscale>
<asrwt>0</asrwt>
<pdfrwt beam="1">  1        1 0.54318869E-02 0.64547117E+02</pdfrwt>
<pdfrwt beam="2">  1       -1 0.45385412E-02 0.64547117E+02</pdfrwt>
<totfact> 0.23066826E+05</totfact>
</mgrwt>
</event>
<event>
 4    1  0.1893769E-002  0.4095126E+02  0.7818608E-02  0.1501326E+00
         -1   -1    0    0  501    0 -0.00000000000E+00  0.00000000000E+00  0.21437904712E+01  0.21437963957E+01  0.50400000000E-02 0. -1.
          1   -1    0    0    0  501  0.00000000000E+00 -0.00000000000E+00 -0.19556520059E+03  0.19556520066E+03  0.50400000000E-02 0. -1.
          2    1    1    2    0  502 -0.12882757042E+02  0.15914114100E+02 -0.95918243146E+02  0.98079222220E+02  0.25500000000E-02 0.  1.
         -2    1    1    2  502    0  0.12882757042E+02 -0.15914114100E+02 -0.97503166977E+02  0.99629774835E+02  0.25500000000E-02 0.  1.
<mgrwt>
<rscale>  0 0.40951259E+02</rscale>
<asrwt>0</asrwt>
<pdfrwt beam="2">  1        1 0.30086940E-01 0.40951259E+02</pdfrwt>
<pdfrwt beam="1">  1       -1 0.32981453E-03 0.40951259E+02</pdfrwt>
<totfact> 0.91748006E+05</totfact>
</mgrwt>
</event>
<event>
 4    1  0.1893769E-002  0.9078338E+02  0.7818608E-02  0.1300966E+00
         -1   -1    0    0  501    0 -0.00000000000E+00  0.00000000000E+00  0.16048631769E+03  0.16048631777E+03  0.50400000000E-02 0. -1.
          1   -1    0    0    0  501  0.00000000000E+00 -0.00000000000E+00 -0.12838511380E+02  0.12838512369E+02  0.50400000000E-02 0. -1.
          2    1    1    2    0  502  0.17216209197E+01  0.39321368328E+02  0.11699372292E+03  0.12343688750E+03  0.25500000000E-02 0.  1.
         -2    1    1    2  502    0 -0.17216209197E+01 -0.39321368328E+02  0.30654083385E+02  0.49887942636E+02  0.25500000000E-02 0.  1.
<mgrwt>
<rscale>  0 0.90783380E+02</rscale>
<asrwt>0</asrwt>
<pdfrwt beam="2">  1        1 0.19751557E-02 0.90783380E+02</pdfrwt>
<pdfrwt beam="1">  1       -1 0.24690203E-01 0.90783380E+02</pdfrwt>
<totfact> 0.74419728E+04</totfact>
</mgrwt>
</event>
<event>
 4    1  0.1893769E-002  0.4673838E+02  0.7818608E-02  0.1463772E+00
          1   -1    0    0    0  501  0.00000000000E+00  0.00000000000E+00  0.13098826854E+01  0.13098923815E+01  0.50400000000E-02 0.  1.
         -1   -1    0    0  501    0 -0.00000000000E+00 -0.00000000000E+00 -0.41692059328E+03  0.41692059331E+03  0.50400000000E-02 0.  1.
          2    1    1    2    0  502  0.19919434657E+02 -0.12037775452E+02 -0.22663341408E+03  0.22782536360E+03  0.25500000000E-02 0.  1.
         -2    1    1    2  502    0 -0.19919434657E+02  0.12037775452E+02 -0.18897729651E+03  0.19040512209E+03  0.25500000000E-02 0.  1.
<mgrwt>
<rscale>  0 0.46738383E+02</rscale>
<asrwt>0</asrwt>
<pdfrwt beam="1">  1        1 0.20152149E-03 0.46738383E+02</pdfrwt>
<pdfrwt beam="2">  1       -1 0.64141525E-01 0.46738383E+02</pdfrwt>
<totfact> 0.28560504E+05</totfact>
</mgrwt>
</event>
<event>
 4    1  0.1893769E-002  0.4648198E+02  0.7818608E-02  0.1465296E+00
          1   -1    0    0    0  501  0.00000000000E+00  0.00000000000E+00  0.53012094171E+01  0.53012118129E+01  0.50400000000E-02 0.  1.
         -1   -1    0    0  501    0 -0.00000000000E+00 -0.00000000000E+00 -0.10189061757E+03  0.10189061769E+03  0.50400000000E-02 0.  1.
          2    1    1    2    0  502  0.10516663149E+02 -0.20719479837E+02 -0.49439840582E+02  0.54627784980E+02  0.25500000000E-02 0. -1.
         -2    1    1    2  502    0 -0.10516663149E+02  0.20719479837E+02 -0.47149567571E+02  0.52564044528E+02  0.25500000000E-02 0. -1.
<mgrwt>
<rscale>  0 0.46481981E+02</rscale>
<asrwt>0</asrwt>
<pdfrwt beam="1">  1        1 0.81557095E-03 0.46481981E+02</pdfrwt>
<pdfrwt beam="2">  1       -1 0.15675478E-01 0.46481981E+02</pdfrwt>
<totfact> 0.44411308E+05</totfact>
</mgrwt>
</event>
<event>
 4    1  0.1893769E-002  0.9867611E+02  0.7818608E-02  0.1283105E+00
         -1   -1    0    0  501    0 -0.00000000000E+00  0.00000000000E+00  0.11783331700E+03  0.11783331710E+03  0.50400000000E-02 0.  1.
          1   -1    0    0    0  501  0.00000000000E+00 -0.00000000000E+00 -0.20658363318E+02  0.20658363932E+02  0.50400000000E-02 0.  1.
          2    1    1    2    0  502 -0.26042586353E+02 -0.41868677053E+02  0.46139954517E+02  0.67528496440E+02  0.25500000000E-02 0.  1.
         -2    1    1    2  502    0  0.26042586353E+02  0.41868677053E+02  0.51034999162E+02  0.70963184597E+02  0.25500000000E-02 0.  1.
<mgrwt>
<rscale>  0 0.98676107E+02</rscale>
<asrwt>0</asrwt>
<pdfrwt beam="2">  1        1 0.31782097E-02 0.98676107E+02</pdfrwt>
<pdfrwt beam="1">  1       -1 0.18128203E-01 0.98676107E+02</pdfrwt>
<totfact> 0.64230613E+04</totfact>
</mgrwt>
</event>
<event>
 4    1  0.1893769E-002  0.8406332E+02  0.7818608E-02  0.1317900E+00
         -1   -1    0    0  501    0 -0.00000000000E+00  0.00000000000E+00  0.61799517676E+01  0.61799538228E+01  0.50400000000E-02 0.  1.
          1   -1    0    0    0  501  0.00000000000E+00 -0.00000000000E+00 -0.28586955667E+03  0.28586955671E+03  0.50400000000E-02 0.  1.
          2    1    1    2    0  502  0.24384178054E+02 -0.34128296118E+02 -0.14925178685E+03  0.15503362416E+03  0.25500000000E-02 0.  1.
         -2    1    1    2  502    0 -0.24384178054E+02  0.34128296118E+02 -0.13043781805E+03  0.13701588638E+03  0.25500000000E-02 0.  1.
<mgrwt>
<rscale>  0 0.84063318E+02</rscale>
<asrwt>0</asrwt>
<pdfrwt beam="2">  1        1 0.43979922E-01 0.84063318E+02</pdfrwt>
<pdfrwt beam="1">  1       -1 0.95076220E-03 0.84063318E+02</pdfrwt>
<totfact> 0.15747990E+05</totfact>
</mgrwt>
</event>
<event>
 4    1  0.1893769E-002  0.4640192E+02  0.7818608E-02  0.1465775E+00
          1   -1    0    0    0  501  0.00000000000E+00  0.00000000000E+00  0.21741215121E+03  0.21741215126E+03  0.50400000000E-02 0.  1.
         -1   -1    0    0  501    0 -0.00000000000E+00 -0.00000000000E+00 -0.24758684236E+01  0.24758735534E+01  0.50400000000E-02 0.  1.
          2    1    1    2    0  502 -0.86915836224E+01 -0.21506734687E+02  0.10959363290E+03  0.11202163917E+03  0.25500000000E-02 0. -1.
         -2    1    1    2  502    0  0.86915836224E+01  0.21506734687E+02  0.10534264988E+03  0.10786638565E+03  0.25500000000E-02 0. -1.
<mgrwt>
<rscale>  0 0.46401916E+02</rscale>
<asrwt>0</asrwt>
<pdfrwt beam="1">  1        1 0.33448036E-01 0.46401916E+02</pdfrwt>
<pdfrwt beam="2">  1       -1 0.38090309E-03 0.46401916E+02</pdfrwt>
<totfact> 0.68683801E+05</totfact>
</mgrwt>
</event>
<event>
 4    1  0.1893769E-002  0.5501057E+02  0.7818608E-02  0.1420049E+00
         -1   -1    0    0  501    0 -0.00000000000E+00  0.00000000000E+00  0.57458464399E+00  0.57460674788E+00  0.50400000000E-02 0.  1.
          1   -1    0    0    0  501  0.00000000000E+00 -0.00000000000E+00 -0.13166487553E+04  0.13166487553E+04  0.50400000000E-02 0.  1.
          2    1    1    2    0  502 -0.26749324653E+02  0.57596290554E+01 -0.72508719534E+03  0.72560329419E+03  0.25500000000E-02 0. -1.
         -2    1    1    2  502    0  0.26749324653E+02 -0.57596290554E+01 -0.59098697535E+03  0.59162006790E+03  0.25500000000E-02 0. -1.
<mgrwt>
<rscale>  0 0.55010571E+02</rscale>
<asrwt>0</asrwt>
<pdfrwt beam="2">  1        1 0.20255893E+00 0.55010571E+02</pdfrwt>
<pdfrwt beam="1">  1       -1 0.88400393E-04 0.55010571E+02</pdfrwt>
<totfact> 0.44622754E+05</totfact>
</mgrwt>
</event>
<event>
 4    1  0.1893769E-002  0.4480425E+02  0.7818608E-02  0.1475567E+00
          1   -1    0    0    0  501  0.00000000000E+00  0.00000000000E+00  0.80270755499E+03  0.80270755501E+03  0.50400000000E-02 0.  1.
         -1   -1    0    0  501    0 -0.00000000000E+00 -0.00000000000E+00 -0.62519286261E+00  0.62521317729E+00  0.50400000000E-02 0.  1.
          2    1    1    2    0  502 -0.12238647887E+02  0.18639686561E+02  0.43963315101E+03  0.44019828474E+03  0.25500000000E-02 0.  1.
         -2    1    1    2  502    0  0.12238647887E+02 -0.18639686561E+02  0.36244921112E+03  0.36313448344E+03  0.25500000000E-02 0.  1.
<mgrwt>
<rscale>  0 0.44804250E+02</rscale>
<asrwt>0</asrwt>
<pdfrwt beam="1">  1        1 0.12349399E+00 0.44804250E+02</pdfrwt>
<pdfrwt beam="2">  1       -1 0.96184675E-04 0.44804250E+02</pdfrwt>
<totfact> 0.86351573E+05</totfact>
</mgrwt>
</event>
<event>
 4    1  0.1893769E-002  0.5185959E+02  0.7818608E-02  0.1435562E+00
         -1   -1    0    0  501    0 -0.00000000000E+00  0.00000000000E+00  0.52211451837E+00  0.52213884350E+00  0.50400000000E-02 0. -1.
          1   -1    0    0    0  501  0.00000000000E+00 -0.00000000000E+00 -0.12877224242E+04  0.12877224242E+04  0.50400000000E-02 0. -1.
          2    1    1    2    0  502 -0.17761967879E+02 -0.17747402948E+02 -0.48281063416E+03  0.48346309712E+03  0.25500000000E-02 0. -1.
         -2    1    1    2  502    0  0.17761967879E+02  0.17747402948E+02 -0.80438967550E+03  0.80478146591E+03  0.25500000000E-02 0. -1.
<mgrwt>
<rscale>  0 0.51859589E+02</rscale>
<asrwt>0</asrwt>
<pdfrwt beam="2">  1        1 0.19810860E+00 0.51859589E+02</pdfrwt>
<pdfrwt beam="1">  1       -1 0.80328213E-04 0.51859589E+02</pdfrwt>
<totfact> 0.52386170E+05</totfact>
</mgrwt>
</event>
<event>
 4    1  0.1893769E-002  0.6931923E+02  0.7818608E-02  0.1362423E+00
          1   -1    0    0    0  501  0.00000000000E+00  0.00000000000E+00  0.39609361073E+01  0.39609393138E+01  0.50400000000E-02 0.  1.
         -1   -1    0    0  501    0 -0.00000000000E+00 -0.00000000000E+00 -0.30328394618E+03  0.30328394622E+03  0.50400000000E-02 0.  1.
          2    1    1    2    0  502  0.23237220324E+02 -0.29339828891E+01 -0.36423607019E+02  0.43304224029E+02  0.25500000000E-02 0.  1.
         -2    1    1    2  502    0 -0.23237220324E+02  0.29339828891E+01 -0.26289940305E+03  0.26394066150E+03  0.25500000000E-02 0.  1.
<mgrwt>
<rscale>  0 0.69319228E+02</rscale>
<asrwt>0</asrwt>
<pdfrwt beam="1">  1        1 0.60937527E-03 0.69319228E+02</pdfrwt>
<pdfrwt beam="2">  1       -1 0.46659051E-01 0.69319228E+02</pdfrwt>
<totfact> 0.12261328E+05</totfact>
</mgrwt>
</event>
<event>
 4    1  0.1893769E-002  0.4302461E+02  0.7818608E-02  0.1487064E+00
          1   -1    0    0    0  501  0.00000000000E+00  0.00000000000E+00  0.61521511535E+01  0.61521532180E+01  0.50400000000E-02 0.  1.
         -1   -1    0    0  501    0 -0.00000000000E+00 -0.00000000000E+00 -0.75222318126E+02  0.75222318295E+02  0.50400000000E-02 0.  1.
          2    1    1    2    0  502 -0.67249752437E+01 -0.20344431303E+02 -0.38152444589E+02  0.43757630325E+02  0.25500000000E-02 0.  1.
         -2    1    1    2  502    0  0.67249752437E+01  0.20344431303E+02 -0.30917722384E+02  0.37616841188E+02  0.25500000000E-02 0.  1.
<mgrwt>
<rscale>  0 0.43024605E+02</rscale>
<asrwt>0</asrwt>
<pdfrwt beam="1">  1        1 0.94648502E-03 0.43024605E+02</pdfrwt>
<pdfrwt beam="2">  1       -1 0.11572664E-01 0.43024605E+02</pdfrwt>
<totfact> 0.56168520E+05</totfact>
</mgrwt>
</event>
<event>
 4    1  0.1893769E-002  0.6828703E+02  0.7818608E-02  0.1366017E+00
         -1   -1    0    0  501    0 -0.00000000000E+00  0.00000000000E+00  0.25814091128E+01  0.25814140329E+01  0.50400000000E-02 0. -1.
          1   -1    0    0    0  501  0.00000000000E+00 -0.00000000000E+00 -0.45160545687E+03  0.45160545690E+03  0.50400000000E-02 0. -1.
          2    1    1    2    0  502  0.23630254289E+02  0.51614472398E+01 -0.64227714940E+02  0.68631106856E+02  0.25500000000E-02 0. -1.
         -2    1    1    2  502    0 -0.23630254289E+02 -0.51614472398E+01 -0.38479633282E+03  0.38555576408E+03  0.25500000000E-02 0. -1.
<mgrwt>
<rscale>  0 0.68287029E+02</rscale>
<asrwt>0</asrwt>
<pdfrwt beam="2">  1        1 0.69477700E-01 0.68287029E+02</pdfrwt>
<pdfrwt beam="1">  1       -1 0.39714060E-03 0.68287029E+02</pdfrwt>
<totfact> 0.29252669E+05</totfact>
</mgrwt>
</event>
<event>
 4    1  0.1893769E-002  0.1524388E+03  0.7818608E-02  0.1197508E+00
          1   -1    0    0    0  501  0.00000000000E+00  0.00000000000E+00  0.79382291900E+03  0.79382291902E+03  0.50400000000E-02 0.  1.
         -1   -1    0    0  501    0 -0.00000000000E+00 -0.00000000000E+00 -0.73182480673E+01  0.73182498028E+01  0.50400000000E-02 0.  1.
          2    1    1    2    0  502  0.55933273647E+02  0.23611352894E+02  0.15107910013E+03  0.16282174790E+03  0.25500000000E-02 0.  1.
         -2    1    1    2  502    0 -0.55933273647E+02 -0.23611352894E+02  0.63542557081E+03  0.63831942092E+03  0.25500000000E-02 0.  1.
<mgrwt>
<rscale>  0 0.15243876E+03</rscale>
<asrwt>0</asrwt>
<pdfrwt beam="1">  1        1 0.12212659E+00 0.15243876E+03</pdfrwt>
<pdfrwt beam="2">  1       -1 0.11258846E-02 0.15243876E+03</pdfrwt>
<totfact> 0.35142607E+04</totfact>
</mgrwt>
</event>
<event>
 4    1  0.1893769E-002  0.5594166E+02  0.7818608E-02  0.1415697E+00
         -1   -1    0    0  501    0 -0.00000000000E+00  0.00000000000E+00  0.13104262575E+01  0.13104359496E+01  0.50400000000E-02 0. -1.
          1   -1    0    0    0  501  0.00000000000E+00 -0.00000000000E+00 -0.59703045680E+03  0.59703045682E+03  0.50400000000E-02 0. -1.
          2    1    1    2    0  502 -0.20838817381E+02  0.12445747495E+02 -0.14918669828E+03  0.15114835060E+03  0.25500000000E-02 0. -1.
         -2    1    1    2  502    0  0.20838817381E+02 -0.12445747495E+02 -0.44653333227E+03  0.44719254217E+03  0.25500000000E-02 0. -1.
<mgrwt>
<rscale>  0 0.55941659E+02</rscale>
<asrwt>0</asrwt>
<pdfrwt beam="2">  1        1 0.91850623E-01 0.55941659E+02</pdfrwt>
<pdfrwt beam="1">  1       -1 0.20160526E-03 0.55941659E+02</pdfrwt>
<totfact> 0.49953692E+05</totfact>
</mgrwt>
</event>
<event>
 4    1  0.1893769E-002  0.6195196E+02  0.7818608E-02  0.1389818E+00
          1   -1    0    0    0  501  0.00000000000E+00  0.00000000000E+00  0.13577241195E+04  0.13577241195E+04  0.50400000000E-02 0. -1.
         -1   -1    0    0  501    0 -0.00000000000E+00 -0.00000000000E+00 -0.70669670999E+00  0.70671468183E+00  0.50400000000E-02 0. -1.
          2    1    1    2    0  502  0.19661126919E+01  0.22131551879E+02  0.11517699606E+04  0.11519842504E+04  0.25500000000E-02 0.  1.
         -2    1    1    2  502    0 -0.19661126919E+01 -0.22131551879E+02  0.20524746225E+03  0.20644658378E+03  0.25500000000E-02 0.  1.
<mgrwt>
<rscale>  0 0.61951961E+02</rscale>
<asrwt>0</asrwt>
<pdfrwt beam="1">  1        1 0.20887913E+00 0.61951961E+02</pdfrwt>
<pdfrwt beam="2">  1       -1 0.10872474E-03 0.61951961E+02</pdfrwt>
<totfact> 0.32416894E+05</totfact>
</mgrwt>
</event>
<event>
 4    1  0.1893769E-002  0.5667565E+02  0.7818608E-02  0.1412337E+00
          1   -1    0    0    0  501  0.00000000000E+00  0.00000000000E+00  0.16106589843E+02  0.16106590631E+02  0.50400000000E-02 0. -1.
         -1   -1    0    0  501    0 -0.00000000000E+00 -0.00000000000E+00 -0.49857382903E+02  0.49857383158E+02  0.50400000000E-02 0. -1.
          2    1    1    2    0  502 -0.23197535568E+02 -0.15080157206E+02 -0.97484960606E+01  0.29335473061E+02  0.25500000000E-02 0. -1.
         -2    1    1    2  502    0  0.23197535568E+02  0.15080157206E+02 -0.24002297000E+02  0.36628500728E+02  0.25500000000E-02 0. -1.
<mgrwt>
<rscale>  0 0.56675654E+02</rscale>
<asrwt>0</asrwt>
<pdfrwt beam="1">  1        1 0.24779370E-02 0.56675654E+02</pdfrwt>
<pdfrwt beam="2">  1       -1 0.76703666E-02 0.56675654E+02</pdfrwt>
<totfact> 0.30002793E+05</totfact>
</mgrwt>
</event>
<event>
 4    1  0.1893769E-002  0.5998833E+02  0.7818608E-02  0.1397881E+00
          1   -1    0    0    0  501  0.00000000000E+00  0.00000000000E+00  0.33184598217E+03  0.33184598221E+03  0.50400000000E-02 0. -1.
         -1   -1    0    0  501    0 -0.00000000000E+00 -0.00000000000E+00 -0.27110443188E+01  0.27110490037E+01  0.50400000000E-02 0. -1.
          2    1    1    2    0  502  0.65204257563E+00  0.29881361263E+02  0.17859793929E+03  0.18108159718E+03  0.25500000000E-02 0. -1.
         -2    1    1    2  502    0 -0.65204257563E+00 -0.29881361263E+02  0.15053699856E+03  0.15347543404E+03  0.25500000000E-02 0. -1.
<mgrwt>
<rscale>  0 0.59988331E+02</rscale>
<asrwt>0</asrwt>
<pdfrwt beam="1">  1        1 0.51053194E-01 0.59988331E+02</pdfrwt>
<pdfrwt beam="2">  1       -1 0.41708439E-03 0.59988331E+02</pdfrwt>
<totfact> 0.38822251E+05</totfact>
</mgrwt>
</event>
<event>
 4    1  0.1893769E-002  0.4320474E+02  0.7818608E-02  0.1485871E+00
         -1   -1    0    0  501    0 -0.00000000000E+00  0.00000000000E+00  0.14480225040E+03  0.14480225049E+03  0.50400000000E-02 0.  1.
          1   -1    0    0    0  501  0.00000000000E+00 -0.00000000000E+00 -0.32227541078E+01  0.32227580488E+01  0.50400000000E-02 0.  1.
          2    1    1    2    0  502  0.18505241449E+02 -0.11094146529E+02  0.74445109466E+02  0.77508698726E+02  0.25500000000E-02 0. -1.
         -2    1    1    2  502    0 -0.18505241449E+02  0.11094146529E+02  0.67134386830E+02  0.70516309814E+02  0.25500000000E-02 0. -1.
<mgrwt>
<rscale>  0 0.43204738E+02</rscale>
<asrwt>0</asrwt>
<pdfrwt beam="2">  1        1 0.49580865E-03 0.43204738E+02</pdfrwt>
<pdfrwt beam="1">  1       -1 0.22277269E-01 0.43204738E+02</pdfrwt>
<totfact> 0.49689582E+05</totfact>
</mgrwt>
</event>
<event>
 4    1  0.1893769E-002  0.6637989E+02  0.7818608E-02  0.1372855E+00
          1   -1    0    0    0  501  0.00000000000E+00  0.00000000000E+00  0.31351838950E+02  0.31351839355E+02  0.50400000000E-02 0.  1.
         -1   -1    0    0  501    0 -0.00000000000E+00 -0.00000000000E+00 -0.35135817818E+02  0.35135818180E+02  0.50400000000E-02 0.  1.
          2    1    1    2    0  502 -0.16569517428E+01  0.31126668869E+02  0.95264089266E+01  0.32593979160E+02  0.25500000000E-02 0.  1.
         -2    1    1    2  502    0  0.16569517428E+01 -0.31126668869E+02 -0.13310387795E+02  0.33893678374E+02  0.25500000000E-02 0.  1.
<mgrwt>
<rscale>  0 0.66379892E+02</rscale>
<asrwt>0</asrwt>
<pdfrwt beam="1">  1        1 0.48233599E-02 0.66379892E+02</pdfrwt>
<pdfrwt beam="2">  1       -1 0.54055105E-02 0.66379892E+02</pdfrwt>
<totfact> 0.21103693E+05</totfact>
</mgrwt>
</event>
<event>
 4    1  0.1893769E-002  0.4313890E+02  0.7818608E-02  0.1486306E+00
         -1   -1    0    0  501    0 -0.00000000000E+00  0.00000000000E+00  0.44511937141E+01  0.44511965674E+01  0.50400000000E-02 0. -1.
          1   -1    0    0    0  501  0.00000000000E+00 -0.00000000000E+00 -0.10452052338E+03  0.10452052350E+03  0.50400000000E-02 0. -1.
          2    1    1    2    0  502 -0.20574947846E+02 -0.21495771419E+01 -0.34608673965E+02  0.40320087808E+02  0.25500000000E-02 0.  1.
         -2    1    1    2  502    0  0.20574947846E+02  0.21495771419E+01 -0.65460655696E+02  0.68651632256E+02  0.25500000000E-02 0.  1.
<mgrwt>
<rscale>  0 0.43138904E+02</rscale>
<asrwt>0</asrwt>
<pdfrwt beam="2">  1        1 0.16080079E-01 0.43138904E+02</pdfrwt>
<pdfrwt beam="1">  1       -1 0.68479934E-03 0.43138904E+02</pdfrwt>
<totfact> 0.73462306E+05</totfact>
</mgrwt>
</event>
<event>
 4    1  0.1893769E-002  0.4800199E+02  0.7818608E-02  0.1456426E+00
         -1   -1    0    0  501    0 -0.00000000000E+00  0.00000000000E+00  0.53807138666E+01  0.53807162270E+01  0.50400000000E-02 0. -1.
          1   -1    0    0    0  501  0.00000000000E+00 -0.00000000000E+00 -0.10705785633E+03  0.10705785645E+03  0.50400000000E-02 0. -1.
          2    1    1    2    0  502 -0.11663446925E+02  0.18970104997E+02 -0.29868517294E+02  0.37256264032E+02  0.25500000000E-02 0.  1.
         -2    1    1    2  502    0  0.11663446925E+02 -0.18970104997E+02 -0.71808625170E+02  0.75182308644E+02  0.25500000000E-02 0.  1.
<mgrwt>
<rscale>  0 0.48001993E+02</rscale>
<asrwt>0</asrwt>
<pdfrwt beam="2">  1        1 0.16470438E-01 0.48001993E+02</pdfrwt>
<pdfrwt beam="1">  1       -1 0.82780240E-03 0.48001993E+02</pdfrwt>
<totfact> 0.56465703E+05</totfact>
</mgrwt>
</event>
<event>
 4    1  0.1893769E-002  0.5458604E+02  0.7818608E-02  0.1422067E+00
          1   -1    0    0    0  501  0.00000000000E+00  0.00000000000E+00  0.28017793393E+02  0.28017793846E+02  0.50400000000E-02 0. -1.
         -1   -1    0    0  501    0 -0.00000000000E+00 -0.00000000000E+00 -0.26586992242E+02  0.26586992720E+02  0.50400000000E-02 0. -1.
          2    1    1    2    0  502 -0.25120140872E+02  0.63365686562E+01 -0.78744745933E+01  0.27077314054E+02  0.25500000000E-02 0. -1.
         -2    1    1    2  502    0  0.25120140872E+02 -0.63365686562E+01  0.93052757439E+01  0.27527472512E+02  0.25500000000E-02 0. -1.
<mgrwt>
<rscale>  0 0.54586038E+02</rscale>
<asrwt>0</asrwt>
<pdfrwt beam="1">  1        1 0.43104298E-02 0.54586038E+02</pdfrwt>
<pdfrwt beam="2">  1       -1 0.40903066E-02 0.54586038E+02</pdfrwt>
<totfact> 0.35137741E+05</totfact>
</mgrwt>
</event>
<event>
 4    1  0.1893769E-002  0.4432459E+02  0.7818608E-02  0.1478603E+00
          1   -1    0    0    0  501  0.00000000000E+00  0.00000000000E+00  0.38587591024E+02  0.38587591353E+02  0.50400000000E-02 0. -1.
         -1   -1    0    0  501    0 -0.00000000000E+00 -0.00000000000E+00 -0.12728634523E+02  0.12728635521E+02  0.50400000000E-02 0. -1.
          2    1    1    2    0  502 -0.10219357164E+02 -0.18056221518E+02  0.39091549339E+01  0.21112647753E+02  0.25500000000E-02 0. -1.
         -2    1    1    2  502    0  0.10219357164E+02  0.18056221518E+02  0.21949801567E+02  0.30203579120E+02  0.25500000000E-02 0. -1.
<mgrwt>
<rscale>  0 0.44324593E+02</rscale>
<asrwt>0</asrwt>
<pdfrwt beam="1">  1        1 0.59365525E-02 0.44324593E+02</pdfrwt>
<pdfrwt beam="2">  1       -1 0.19582516E-02 0.44324593E+02</pdfrwt>
<totfact> 0.61819794E+05</totfact>
</mgrwt>
</event>
<event>
 4    1  0.1893769E-002  0.4408432E+02  0.7818608E-02  0.1480140E+00
          1   -1    0    0    0  501  0.00000000000E+00  0.00000000000E+00  0.35439624868E+02  0.35439625227E+02  0.50400000000E-02 0.  1.
         -1   -1    0    0  501    0 -0.00000000000E+00 -0.00000000000E+00 -0.13709423333E+02  0.13709424259E+02  0.50400000000E-02 0.  1.
          2    1    1    2    0  502 -0.21478717231E+02  0.32440807560E+01  0.66939482970E+01  0.22730338848E+02  0.25500000000E-02 0.  1.
         -2    1    1    2  502    0  0.21478717231E+02 -0.32440807560E+01  0.15036253239E+02  0.26418710638E+02  0.25500000000E-02 0.  1.
<mgrwt>
<rscale>  0 0.44084322E+02</rscale>
<asrwt>0</asrwt>
<pdfrwt beam="1">  1        1 0.54522500E-02 0.44084322E+02</pdfrwt>
<pdfrwt beam="2">  1       -1 0.21091422E-02 0.44084322E+02</pdfrwt>
<totfact> 0.62227106E+05</totfact>
</mgrwt>
</event>
<event>
 4    1  0.1893769E-002  0.9291306E+02  0.7818608E-02  0.1295947E+00
         -1   -1    0    0  501    0 -0.00000000000E+00  0.00000000000E+00  0.89630923389E+03  0.89630923390E+03  0.50400000000E-02 0.  1.
          1   -1    0    0    0  501  0.00000000000E+00 -0.00000000000E+00 -0.24078821360E+01  0.24078874107E+01  0.50400000000E-02 0.  1.
          2    1    1    2    0  502  0.15468166824E+02  0.34826829671E+02  0.18993477180E+03  0.19371987455E+03  0.25500000000E-02 0.  1.
         -2    1    1    2  502    0 -0.15468166824E+02 -0.34826829671E+02  0.70396657995E+03  0.70499724676E+03  0.25500000000E-02 0.  1.
<mgrwt>
<rscale>  0 0.92913064E+02</rscale>
<asrwt>0</asrwt>
<pdfrwt beam="2">  1        1 0.37044452E-03 0.92913064E+02</pdfrwt>
<pdfrwt beam="1">  1       -1 0.13789346E+00 0.92913064E+02</pdfrwt>
<totfact> 0.27663395E+04</totfact>
</mgrwt>
</event>
<event>
 4    1  0.1893769E-002  0.1073421E+03  0.7818608E-02  0.1265573E+00
          1   -1    0    0    0  501  0.00000000000E+00  0.00000000000E+00  0.15626454163E+03  0.15626454171E+03  0.50400000000E-02 0. -1.
         -1   -1    0    0  501    0 -0.00000000000E+00 -0.00000000000E+00 -0.18433995158E+02  0.18433995847E+02  0.50400000000E-02 0. -1.
          2    1    1    2    0  502  0.46592049588E+02 -0.20662666252E+02  0.41545541840E+02  0.65755584666E+02  0.25500000000E-02 0.  1.
         -2    1    1    2  502    0 -0.46592049588E+02  0.20662666252E+02  0.96285004635E+02  0.10894295290E+03  0.25500000000E-02 0.  1.
<mgrwt>
<rscale>  0 0.10734207E+03</rscale>
<asrwt>0</asrwt>
<pdfrwt beam="1">  1        1 0.24040698E-01 0.10734207E+03</pdfrwt>
<pdfrwt beam="2">  1       -1 0.28359993E-02 0.10734207E+03</pdfrwt>
<totfact> 0.72449146E+04</totfact>
</mgrwt>
</event>
<event>
 4    1  0.1893769E-002  0.5289885E+02  0.7818608E-02  0.1430305E+00
         -1   -1    0    0  501    0 -0.00000000000E+00  0.00000000000E+00  0.94584210206E+00  0.94585553000E+00  0.50400000000E-02 0. -1.
          1   -1    0    0    0  501  0.00000000000E+00 -0.00000000000E+00 -0.73962366239E+03  0.73962366240E+03  0.50400000000E-02 0. -1.
          2    1    1    2    0  502 -0.25692147752E+02  0.16118588208E+01 -0.45436651167E+03  0.45509516749E+03  0.25500000000E-02 0. -1.
         -2    1    1    2  502    0  0.25692147752E+02 -0.16118588208E+01 -0.28431130862E+03  0.28547435044E+03  0.25500000000E-02 0. -1.
<mgrwt>
<rscale>  0 0.52898854E+02</rscale>
<asrwt>0</asrwt>
<pdfrwt beam="2">  1        1 0.11378779E+00 0.52898854E+02</pdfrwt>
<pdfrwt beam="1">  1       -1 0.14551580E-03 0.52898854E+02</pdfrwt>
<totfact> 0.57585858E+05</totfact>
</mgrwt>
</event>
<event>
 4    1  0.1893769E-002  0.4259434E+02  0.7818608E-02  0.1489944E+00
         -1   -1    0    0  501    0 -0.00000000000E+00  0.00000000000E+00  0.79992616698E+01  0.79992632576E+01  0.50400000000E-02 0.  1.
          1   -1    0    0    0  501  0.00000000000E+00 -0.00000000000E+00 -0.56701404857E+02  0.56701405081E+02  0.50400000000E-02 0.  1.
          2    1    1    2    0  502 -0.18536803711E+02 -0.92832416199E+01 -0.16944071511E+02  0.26774861954E+02  0.25500000000E-02 0.  1.
         -2    1    1    2  502    0  0.18536803711E+02  0.92832416199E+01 -0.31758071676E+02  0.37925806384E+02  0.25500000000E-02 0.  1.
<mgrwt>
<rscale>  0 0.42594339E+02</rscale>
<asrwt>0</asrwt>
<pdfrwt beam="2">  1        1 0.87232929E-02 0.42594339E+02</pdfrwt>
<pdfrwt beam="1">  1       -1 0.12306558E-02 0.42594339E+02</pdfrwt>
<totfact> 0.70732331E+05</totfact>
</mgrwt>
</event>
<event>
 4    1  0.1893769E-002  0.4564507E+02  0.7818608E-02  0.1470354E+00
         -1   -1    0    0  501    0 -0.00000000000E+00  0.00000000000E+00  0.43839814300E+01  0.43839843270E+01  0.50400000000E-02 0. -1.
          1   -1    0    0    0  501  0.00000000000E+00 -0.00000000000E+00 -0.11881161708E+03  0.11881161718E+03  0.50400000000E-02 0. -1.
          2    1    1    2    0  502  0.14616994251E+02 -0.16546316010E+02 -0.41608376589E+02  0.47103015863E+02  0.25500000000E-02 0.  1.
         -2    1    1    2  502    0 -0.14616994251E+02  0.16546316010E+02 -0.72819259057E+02  0.76092585648E+02  0.25500000000E-02 0.  1.
<mgrwt>
<rscale>  0 0.45645070E+02</rscale>
<asrwt>0</asrwt>
<pdfrwt beam="2">  1        1 0.18278708E-01 0.45645070E+02</pdfrwt>
<pdfrwt beam="1">  1       -1 0.67445900E-03 0.45645070E+02</pdfrwt>
<totfact> 0.64974469E+05</totfact>
</mgrwt>
</event>
<event>
 4    1  0.1893769E-002  0.4571484E+02  0.7818608E-02  0.1469928E+00
         -1   -1    0    0  501    0 -0.00000000000E+00  0.00000000000E+00  0.26905998064E+03  0.26905998069E+03  0.50400000000E-02 0. -1.
          1   -1    0    0    0  501  0.00000000000E+00 -0.00000000000E+00 -0.19417999172E+01  0.19418064579E+01  0.50400000000E-02 0. -1.
          2    1    1    2    0  502  0.21984165899E+02  0.62402068883E+01  0.13632568763E+03  0.13822784396E+03  0.25500000000E-02 0.  1.
         -2    1    1    2  502    0 -0.21984165899E+02 -0.62402068883E+01  0.13079249309E+03  0.13277394318E+03  0.25500000000E-02 0.  1.
<mgrwt>
<rscale>  0 0.45714835E+02</rscale>
<asrwt>0</asrwt>
<pdfrwt beam="2">  1        1 0.29873910E-03 0.45714835E+02</pdfrwt>
<pdfrwt beam="1">  1       -1 0.41393824E-01 0.45714835E+02</pdfrwt>
<totfact> 0.36429491E+05</totfact>
</mgrwt>
</event>
<event>
 4    1  0.1893769E-002  0.5388945E+02  0.7818608E-02  0.1425425E+00
          1   -1    0    0    0  501  0.00000000000E+00  0.00000000000E+00  0.95740824054E+03  0.95740824055E+03  0.50400000000E-02 0. -1.
         -1   -1    0    0  501    0 -0.00000000000E+00 -0.00000000000E+00 -0.75830792022E+00  0.75832466890E+00  0.50400000000E-02 0. -1.
          2    1    1    2    0  502  0.15863911859E+02 -0.14815059421E+02  0.19447071916E+03  0.19567833376E+03  0.25500000000E-02 0. -1.
         -2    1    1    2  502    0 -0.15863911859E+02  0.14815059421E+02  0.76217921345E+03  0.76248823146E+03  0.25500000000E-02 0. -1.
<mgrwt>
<rscale>  0 0.53889453E+02</rscale>
<asrwt>0</asrwt>
<pdfrwt beam="1">  1        1 0.14729423E+00 0.53889453E+02</pdfrwt>
<pdfrwt beam="2">  1       -1 0.11666353E-03 0.53889453E+02</pdfrwt>
<totfact> 0.53217264E+05</totfact>
</mgrwt>
</event>
<event>
 4    1  0.1893769E-002  0.4400668E+02  0.7818608E-02  0.1480640E+00
          1   -1    0    0    0  501  0.00000000000E+00  0.00000000000E+00  0.11135179308E+03  0.11135179319E+03  0.50400000000E-02 0. -1.
         -1   -1    0    0  501    0 -0.00000000000E+00 -0.00000000000E+00 -0.43479024136E+01  0.43479053347E+01  0.50400000000E-02 0. -1.
          2    1    1    2    0  502 -0.80906434861E+01  0.19440416243E+02  0.70287020793E+02  0.73373384780E+02  0.25500000000E-02 0. -1.
         -2    1    1    2  502    0  0.80906434861E+01 -0.19440416243E+02  0.36716869873E+02  0.42326313748E+02  0.25500000000E-02 0. -1.
<mgrwt>
<rscale>  0 0.44006677E+02</rscale>
<asrwt>0</asrwt>
<pdfrwt beam="1">  1        1 0.17131045E-01 0.44006677E+02</pdfrwt>
<pdfrwt beam="2">  1       -1 0.66890832E-03 0.44006677E+02</pdfrwt>
<totfact> 0.70518369E+05</totfact>
</mgrwt>
</event>
<event>
 4    1  0.1893769E-002  0.6622043E+02  0.7818608E-02  0.1373439E+00
         -1   -1    0    0  501    0 -0.00000000000E+00  0.00000000000E+00  0.42974711860E+01  0.42974741414E+01  0.50400000000E-02 0. -1.
          1   -1    0    0    0  501  0.00000000000E+00 -0.00000000000E+00 -0.25510025787E+03  0.25510025792E+03  0.50400000000E-02 0. -1.
          2    1    1    2    0  502 -0.16034754544E+01  0.28997042617E+02 -0.63108683057E+02  0.69470177039E+02  0.25500000000E-02 0.  1.
         -2    1    1    2  502    0  0.16034754544E+01 -0.28997042617E+02 -0.18769410362E+03  0.18992755502E+03  0.25500000000E-02 0.  1.
<mgrwt>
<rscale>  0 0.66220432E+02</rscale>
<asrwt>0</asrwt>
<pdfrwt beam="2">  1        1 0.39246182E-01 0.66220432E+02</pdfrwt>
<pdfrwt beam="1">  1       -1 0.66114985E-03 0.66220432E+02</pdfrwt>
<totfact> 0.28741926E+05</totfact>
</mgrwt>
</event>
<event>
 4    1  0.1893769E-002  0.5067469E+02  0.7818608E-02  0.1441736E+00
          1   -1    0    0    0  501  0.00000000000E+00  0.00000000000E+00  0.60304116009E+01  0.60304137070E+01  0.50400000000E-02 0. -1.
         -1   -1    0    0  501    0 -0.00000000000E+00 -0.00000000000E+00 -0.10645721461E+03  0.10645721473E+03  0.50400000000E-02 0. -1.
          2    1    1    2    0  502  0.16715987110E+02 -0.16587405296E+02 -0.70967598466E+02  0.74772764280E+02  0.25500000000E-02 0. -1.
         -2    1    1    2  502    0 -0.16715987110E+02  0.16587405296E+02 -0.29459204542E+02  0.37714864155E+02  0.25500000000E-02 0. -1.
<mgrwt>
<rscale>  0 0.50674686E+02</rscale>
<asrwt>0</asrwt>
<pdfrwt beam="1">  1        1 0.92775588E-03 0.50674686E+02</pdfrwt>
<pdfrwt beam="2">  1       -1 0.16378032E-01 0.50674686E+02</pdfrwt>
<totfact> 0.35626820E+05</totfact>
</mgrwt>
</event>
<event>
 4    1  0.1893769E-002  0.5275983E+02  0.7818608E-02  0.1431000E+00
          1   -1    0    0    0  501  0.00000000000E+00  0.00000000000E+00  0.77090546087E+02  0.77090546252E+02  0.50400000000E-02 0.  1.
         -1   -1    0    0  501    0 -0.00000000000E+00 -0.00000000000E+00 -0.90270448297E+01  0.90270462367E+01  0.50400000000E-02 0.  1.
          2    1    1    2    0  502 -0.85934625829E+01  0.18809783902E+02  0.60765123725E+02  0.64187661100E+02  0.25500000000E-02 0. -1.
         -2    1    1    2  502    0  0.85934625829E+01 -0.18809783902E+02  0.72983775322E+01  0.21929931389E+02  0.25500000000E-02 0. -1.
<mgrwt>
<rscale>  0 0.52759829E+02</rscale>
<asrwt>0</asrwt>
<pdfrwt beam="1">  1        1 0.11860084E-01 0.52759829E+02</pdfrwt>
<pdfrwt beam="2">  1       -1 0.13887762E-02 0.52759829E+02</pdfrwt>
<totfact> 0.42622933E+05</totfact>
</mgrwt>
</event>
<event>
 4    1  0.1893769E-002  0.5668358E+02  0.7818608E-02  0.1412301E+00
          1   -1    0    0    0  501  0.00000000000E+00  0.00000000000E+00  0.11658523210E+04  0.11658523210E+04  0.50400000000E-02 0. -1.
         -1   -1    0    0  501    0 -0.00000000000E+00 -0.00000000000E+00 -0.68897775216E+00  0.68899618618E+00  0.50400000000E-02 0. -1.
          2    1    1    2    0  502 -0.28081754716E+02 -0.36320118590E+01  0.55754004730E+03  0.55825861463E+03  0.25500000000E-02 0.  1.
         -2    1    1    2  502    0  0.28081754716E+02  0.36320118590E+01  0.60762329591E+03  0.60828270253E+03  0.25500000000E-02 0.  1.
<mgrwt>
<rscale>  0 0.56683580E+02</rscale>
<asrwt>0</asrwt>
<pdfrwt beam="1">  1        1 0.17936240E+00 0.56683580E+02</pdfrwt>
<pdfrwt beam="2">  1       -1 0.10599770E-03 0.56683580E+02</pdfrwt>
<totfact> 0.44012219E+05</totfact>
</mgrwt>
</event>
<event>
 4    1  0.1893769E-002  0.5378991E+02  0.7818608E-02  0.1425910E+00
         -1   -1    0    0  501    0 -0.00000000000E+00  0.00000000000E+00  0.16729888730E+01  0.16729964647E+01  0.50400000000E-02 0. -1.
          1   -1    0    0    0  501  0.00000000000E+00 -0.00000000000E+00 -0.43236214966E+03  0.43236214969E+03  0.50400000000E-02 0. -1.
          2    1    1    2    0  502  0.15587887513E+02 -0.21749937529E+02 -0.23714109692E+03  0.23864605984E+03  0.25500000000E-02 0.  1.
         -2    1    1    2  502    0 -0.15587887513E+02  0.21749937529E+02 -0.19354806387E+03  0.19538908632E+03  0.25500000000E-02 0.  1.
<mgrwt>
<rscale>  0 0.53789914E+02</rscale>
<asrwt>0</asrwt>
<pdfrwt beam="2">  1        1 0.66517165E-01 0.53789914E+02</pdfrwt>
<pdfrwt beam="1">  1       -1 0.25738383E-03 0.53789914E+02</pdfrwt>
<totfact> 0.53325188E+05</totfact>
</mgrwt>
</event>
<event>
 4    1  0.1893769E-002  0.4831393E+02  0.7818608E-02  0.1454654E+00
         -1   -1    0    0  501    0 -0.00000000000E+00  0.00000000000E+00  0.18557323300E+02  0.18557323984E+02  0.50400000000E-02 0. -1.
          1   -1    0    0    0  501  0.00000000000E+00 -0.00000000000E+00 -0.31446291978E+02  0.31446292382E+02  0.50400000000E-02 0. -1.
          2    1    1    2    0  502  0.22293195878E+02 -0.90911117760E+01 -0.43942627170E+01  0.24473341560E+02  0.25500000000E-02 0.  1.
         -2    1    1    2  502    0 -0.22293195878E+02  0.90911117760E+01 -0.84947059608E+01  0.25530274806E+02  0.25500000000E-02 0.  1.
<mgrwt>
<rscale>  0 0.48313933E+02</rscale>
<asrwt>0</asrwt>
<pdfrwt beam="2">  1        1 0.48378911E-02 0.48313933E+02</pdfrwt>
<pdfrwt beam="1">  1       -1 0.28549729E-02 0.48313933E+02</pdfrwt>
<totfact> 0.48770574E+05</totfact>
</mgrwt>
</event>
<event>
 4    1  0.1893769E-002  0.7065163E+02  0.7818608E-02  0.1357891E+00
         -1   -1    0    0  501    0 -0.00000000000E+00  0.00000000000E+00  0.84777999217E+00  0.84779497328E+00  0.50400000000E-02 0.  1.
          1   -1    0    0    0  501  0.00000000000E+00 -0.00000000000E+00 -0.14719645796E+04  0.14719645796E+04  0.50400000000E-02 0.  1.
          2    1    1    2    0  502 -0.24090307014E+02  0.21192151551E+02 -0.42744246026E+03  0.42864496616E+03  0.25500000000E-02 0. -1.
         -2    1    1    2  502    0  0.24090307014E+02 -0.21192151551E+02 -0.10436743394E+04  0.10441674084E+04  0.25500000000E-02 0. -1.
<mgrwt>
<rscale>  0 0.70651629E+02</rscale>
<asrwt>0</asrwt>
<pdfrwt beam="2">  1        1 0.22645405E+00 0.70651629E+02</pdfrwt>
<pdfrwt beam="1">  1       -1 0.13043002E-03 0.70651629E+02</pdfrwt>
<totfact> 0.21860663E+05</totfact>
</mgrwt>
</event>
<event>
 4    1  0.1893769E-002  0.4691088E+02  0.7818608E-02  0.1462753E+00
         -1   -1    0    0  501    0 -0.00000000000E+00  0.00000000000E+00  0.23748766621E+01  0.23748820101E+01  0.50400000000E-02 0.  1.
          1   -1    0    0    0  501  0.00000000000E+00 -0.00000000000E+00 -0.23165705954E+03  0.23165705960E+03  0.50400000000E-02 0.  1.
          2    1    1    2    0  502 -0.41096686012E+01 -0.19628420717E+02 -0.17533185613E+03  0.17647499555E+03  0.25500000000E-02 0. -1.
         -2    1    1    2  502    0  0.41096686012E+01  0.19628420717E+02 -0.53950326756E+02  0.57556946057E+02  0.25500000000E-02 0. -1.
<mgrwt>
<rscale>  0 0.46910876E+02</rscale>
<asrwt>0</asrwt>
<pdfrwt beam="2">  1        1 0.35639530E-01 0.46910876E+02</pdfrwt>
<pdfrwt beam="1">  1       -1 0.36536624E-03 0.46910876E+02</pdfrwt>
<totfact> 0.67591706E+05</totfact>
</mgrwt>
</event>
<event>
 4    1  0.1893769E-002  0.1183381E+03  0.7818608E-02  0.1245864E+00
          1   -1    0    0    0  501  0.00000000000E+00  0.00000000000E+00  0.37034562468E+03  0.37034562471E+03  0.50400000000E-02 0.  1.
         -1   -1    0    0  501    0 -0.00000000000E+00 -0.00000000000E+00 -0.94532744237E+01  0.94532757672E+01  0.50400000000E-02 0.  1.
          2    1    1    2    0  502 -0.26545159670E+02  0.38560741818E+02  0.64310519425E+02  0.79545076697E+02  0.25500000000E-02 0. -1.
         -2    1    1    2  502    0  0.26545159670E+02 -0.38560741818E+02  0.29658183083E+03  0.30025382378E+03  0.25500000000E-02 0. -1.
<mgrwt>
<rscale>  0 0.11833814E+03</rscale>
<asrwt>0</asrwt>
<pdfrwt beam="1">  1        1 0.56976253E-01 0.11833814E+03</pdfrwt>
<pdfrwt beam="2">  1       -1 0.14543499E-02 0.11833814E+03</pdfrwt>
<totfact> 0.65961969E+04</totfact>
</mgrwt>
</event>
<event>
 4    1  0.1893769E-002  0.4160756E+02  0.7818608E-02  0.1496704E+00
          1   -1    0    0    0  501  0.00000000000E+00  0.00000000000E+00  0.10109602838E+04  0.10109602839E+04  0.50400000000E-02 0.  1.
         -1   -1    0    0  501    0 -0.00000000000E+00 -0.00000000000E+00 -0.42809016155E+00  0.42811982903E+00  0.50400000000E-02 0.  1.
          2    1    1    2    0  502 -0.14380776794E+01 -0.20669435180E+02  0.45976739089E+03  0.46023401368E+03  0.25500000000E-02 0. -1.
         -2    1    1    2  502    0  0.14380776794E+01  0.20669435180E+02  0.55076480280E+03  0.55115439001E+03  0.25500000000E-02 0. -1.
<mgrwt>
<rscale>  0 0.41607555E+02</rscale>
<asrwt>0</asrwt>
<pdfrwt beam="1">  1        1 0.15553125E+00 0.41607555E+02</pdfrwt>
<pdfrwt beam="2">  1       -1 0.65862777E-04 0.41607555E+02</pdfrwt>
<totfact> 0.99376445E+05</totfact>
</mgrwt>
</event>
<event>
 4    1  0.1893769E-002  0.5198246E+02  0.7818608E-02  0.1434933E+00
         -1   -1    0    0  501    0 -0.00000000000E+00  0.00000000000E+00  0.11458696472E+02  0.11458697580E+02  0.50400000000E-02 0.  1.
          1   -1    0    0    0  501  0.00000000000E+00 -0.00000000000E+00 -0.58954695798E+02  0.58954696014E+02  0.50400000000E-02 0.  1.
          2    1    1    2    0  502 -0.11922465753E+01  0.25888685871E+02 -0.21073472279E+02  0.33402645829E+02  0.25500000000E-02 0.  1.
         -2    1    1    2  502    0  0.11922465753E+01 -0.25888685871E+02 -0.26422527048E+02  0.37010747765E+02  0.25500000000E-02 0.  1.
<mgrwt>
<rscale>  0 0.51982459E+02</rscale>
<asrwt>0</asrwt>
<pdfrwt beam="2">  1        1 0.90699531E-02 0.51982459E+02</pdfrwt>
<pdfrwt beam="1">  1       -1 0.17628765E-02 0.51982459E+02</pdfrwt>
<totfact> 0.42940218E+05</totfact>
</mgrwt>
</event>
<event>
 4    1  0.1893769E-002  0.5335668E+02  0.7818608E-02  0.1428034E+00
         -1   -1    0    0  501    0 -0.00000000000E+00  0.00000000000E+00  0.20716312656E+01  0.20716373964E+01  0.50400000000E-02 0. -1.
          1   -1    0    0    0  501  0.00000000000E+00 -0.00000000000E+00 -0.34356154586E+03  0.34356154589E+03  0.50400000000E-02 0. -1.
          2    1    1    2    0  502 -0.92710438661E+01 -0.20800095243E+02 -0.26076933258E+03  0.26176180210E+03  0.25500000000E-02 0.  1.
         -2    1    1    2  502    0  0.92710438661E+01  0.20800095243E+02 -0.80720582010E+02  0.83871381191E+02  0.25500000000E-02 0.  1.
<mgrwt>
<rscale>  0 0.53356683E+02</rscale>
<asrwt>0</asrwt>
<pdfrwt beam="2">  1        1 0.52855578E-01 0.53356683E+02</pdfrwt>
<pdfrwt beam="1">  1       -1 0.31871325E-03 0.53356683E+02</pdfrwt>
<totfact> 0.52507585E+05</totfact>
</mgrwt>
</event>
<event>
 4    1  0.1893769E-002  0.5987934E+02  0.7818608E-02  0.1398339E+00
         -1   -1    0    0  501    0 -0.00000000000E+00  0.00000000000E+00  0.78032214826E+00  0.78033842445E+00  0.50400000000E-02 0. -1.
          1   -1    0    0    0  501  0.00000000000E+00 -0.00000000000E+00 -0.11487237299E+04  0.11487237300E+04  0.50400000000E-02 0. -1.
          2    1    1    2    0  502  0.28980499594E+02 -0.73941702105E+01 -0.60001754471E+03  0.60076251304E+03  0.25500000000E-02 0.  1.
         -2    1    1    2  502    0 -0.28980499594E+02  0.73941702105E+01 -0.54792586308E+03  0.54874155534E+03  0.25500000000E-02 0.  1.
<mgrwt>
<rscale>  0 0.59879343E+02</rscale>
<asrwt>0</asrwt>
<pdfrwt beam="2">  1        1 0.17672538E+00 0.59879343E+02</pdfrwt>
<pdfrwt beam="1">  1       -1 0.12005173E-03 0.59879343E+02</pdfrwt>
<totfact> 0.38555944E+05</totfact>
</mgrwt>
</event>
<event>
 4    1  0.1893769E-002  0.7689569E+02  0.7818608E-02  0.1338099E+00
         -1   -1    0    0  501    0 -0.00000000000E+00  0.00000000000E+00  0.20110642317E+03  0.20110642323E+03  0.50400000000E-02 0.  1.
          1   -1    0    0    0  501  0.00000000000E+00 -0.00000000000E+00 -0.73505197764E+01  0.73505215043E+01  0.50400000000E-02 0.  1.
          2    1    1    2    0  502 -0.85680375580E+01 -0.20788445161E+02  0.18142457392E+03  0.18281260008E+03  0.25500000000E-02 0.  1.
         -2    1    1    2  502    0  0.85680375580E+01  0.20788445161E+02  0.12331329475E+02  0.25644344658E+02  0.25500000000E-02 0.  1.
<mgrwt>
<rscale>  0 0.76895694E+02</rscale>
<asrwt>0</asrwt>
<pdfrwt beam="2">  1        1 0.11308494E-02 0.76895694E+02</pdfrwt>
<pdfrwt beam="1">  1       -1 0.30939448E-01 0.76895694E+02</pdfrwt>
<totfact> 0.10776942E+05</totfact>
</mgrwt>
</event>
<event>
 4    1  0.1893769E-002  0.9576335E+02  0.7818608E-02  0.1289466E+00
         -1   -1    0    0  501    0 -0.00000000000E+00  0.00000000000E+00  0.93928195474E+00  0.93929547646E+00  0.50400000000E-02 0. -1.
          1   -1    0    0    0  501  0.00000000000E+00 -0.00000000000E+00 -0.24408415033E+04  0.24408415033E+04  0.50400000000E-02 0. -1.
          2    1    1    2    0  502 -0.15815986339E+02  0.43302623658E+02 -0.89005666364E+03  0.89124975576E+03  0.25500000000E-02 0.  1.
         -2    1    1    2  502    0  0.15815986339E+02 -0.43302623658E+02 -0.15498455577E+04  0.15505310430E+04  0.25500000000E-02 0.  1.
<mgrwt>
<rscale>  0 0.95763352E+02</rscale>
<asrwt>0</asrwt>
<pdfrwt beam="2">  1        1 0.37550900E+00 0.95763352E+02</pdfrwt>
<pdfrwt beam="1">  1       -1 0.14450791E-03 0.95763352E+02</pdfrwt>
<totfact> 0.48455352E+04</totfact>
</mgrwt>
</event>
<event>
 4    1  0.1893769E-002  0.1269689E+03  0.7818608E-02  0.1232024E+00
          1   -1    0    0    0  501  0.00000000000E+00  0.00000000000E+00  0.82899129870E+03  0.82899129872E+03  0.50400000000E-02 0.  1.
         -1   -1    0    0  501    0 -0.00000000000E+00 -0.00000000000E+00 -0.48616635605E+01  0.48616661729E+01  0.50400000000E-02 0.  1.
          2    1    1    2    0  502  0.35707994950E+02  0.95485491704E+01  0.73093825378E+02  0.81908137627E+02  0.25500000000E-02 0. -1.
         -2    1    1    2  502    0 -0.35707994950E+02 -0.95485491704E+01  0.75103580976E+03  0.75194482726E+03  0.25500000000E-02 0. -1.
<mgrwt>
<rscale>  0 0.12696894E+03</rscale>
<asrwt>0</asrwt>
<pdfrwt beam="1">  1        1 0.12753707E+00 0.12696894E+03</pdfrwt>
<pdfrwt beam="2">  1       -1 0.74794877E-03 0.12696894E+03</pdfrwt>
<totfact> 0.57866102E+04</totfact>
</mgrwt>
</event>
<event>
 4    1  0.1893769E-002  0.6727906E+02  0.7818608E-02  0.1369598E+00
         -1   -1    0    0  501    0 -0.00000000000E+00  0.00000000000E+00  0.70992056332E+00  0.70993845355E+00  0.50400000000E-02 0. -1.
          1   -1    0    0    0  501  0.00000000000E+00 -0.00000000000E+00 -0.15939864418E+04  0.15939864418E+04  0.50400000000E-02 0. -1.
          2    1    1    2    0  502 -0.31336677123E+02 -0.70908802034E+01 -0.10328939326E+04  0.10333935087E+04  0.25500000000E-02 0. -1.
         -2    1    1    2  502    0  0.31336677123E+02  0.70908802034E+01 -0.56038258867E+03  0.56130287155E+03  0.25500000000E-02 0. -1.
<mgrwt>
<rscale>  0 0.67279061E+02</rscale>
<asrwt>0</asrwt>
<pdfrwt beam="2">  1        1 0.24522582E+00 0.67279061E+02</pdfrwt>
<pdfrwt beam="1">  1       -1 0.10922120E-03 0.67279061E+02</pdfrwt>
<totfact> 0.23170909E+05</totfact>
</mgrwt>
</event>
<event>
 4    1  0.1893769E-002  0.6276117E+02  0.7818608E-02  0.1386597E+00
          1   -1    0    0    0  501  0.00000000000E+00  0.00000000000E+00  0.67513712303E+03  0.67513712305E+03  0.50400000000E-02 0. -1.
         -1   -1    0    0  501    0 -0.00000000000E+00 -0.00000000000E+00 -0.14585748591E+01  0.14585835668E+01  0.50400000000E-02 0. -1.
          2    1    1    2    0  502 -0.84881282642E+01 -0.27654988595E+02  0.20573589053E+03  0.20775972510E+03  0.25500000000E-02 0.  1.
         -2    1    1    2  502    0  0.84881282642E+01  0.27654988595E+02  0.46794265765E+03  0.46883598152E+03  0.25500000000E-02 0.  1.
<mgrwt>
<rscale>  0 0.62761166E+02</rscale>
<asrwt>0</asrwt>
<pdfrwt beam="1">  1        1 0.10386705E+00 0.62761166E+02</pdfrwt>
<pdfrwt beam="2">  1       -1 0.22439724E-03 0.62761166E+02</pdfrwt>
<totfact> 0.37486423E+05</totfact>
</mgrwt>
</event>
<event>
 4    1  0.1893769E-002  0.4880743E+02  0.7818608E-02  0.1451882E+00
         -1   -1    0    0  501    0 -0.00000000000E+00  0.00000000000E+00  0.12736377644E+02  0.12736378641E+02  0.50400000000E-02 0. -1.
          1   -1    0    0    0  501  0.00000000000E+00 -0.00000000000E+00 -0.46759084063E+02  0.46759084334E+02  0.50400000000E-02 0. -1.
          2    1    1    2    0  502 -0.19639021638E+01  0.23710382826E+02 -0.10390328382E+02  0.25961473299E+02  0.25500000000E-02 0.  1.
         -2    1    1    2  502    0  0.19639021638E+01 -0.23710382826E+02 -0.23632378037E+02  0.33533989677E+02  0.25500000000E-02 0.  1.
<mgrwt>
<rscale>  0 0.48807433E+02</rscale>
<asrwt>0</asrwt>
<pdfrwt beam="2">  1        1 0.71937052E-02 0.48807433E+02</pdfrwt>
<pdfrwt beam="1">  1       -1 0.19594428E-02 0.48807433E+02</pdfrwt>
<totfact> 0.49262782E+05</totfact>
</mgrwt>
</event>
<event>
 4    1  0.1893769E-002  0.4869550E+02  0.7818608E-02  0.1452507E+00
          1   -1    0    0    0  501  0.00000000000E+00  0.00000000000E+00  0.74380641749E+02  0.74380641920E+02  0.50400000000E-02 0. -1.
         -1   -1    0    0  501    0 -0.00000000000E+00 -0.00000000000E+00 -0.79699874044E+01  0.79699889980E+01  0.50400000000E-02 0. -1.
          2    1    1    2    0  502 -0.16989087848E+02 -0.17020703879E+02  0.39640394231E+02  0.46364796211E+02  0.25500000000E-02 0. -1.
         -2    1    1    2  502    0  0.16989087848E+02  0.17020703879E+02  0.26770260114E+02  0.35985834707E+02  0.25500000000E-02 0. -1.
<mgrwt>
<rscale>  0 0.48695497E+02</rscale>
<asrwt>0</asrwt>
<pdfrwt beam="1">  1        1 0.11443175E-01 0.48695497E+02</pdfrwt>
<pdfrwt beam="2">  1       -1 0.12261521E-02 0.48695497E+02</pdfrwt>
<totfact> 0.52021273E+05</totfact>
</mgrwt>
</event>
<event>
 4    1  0.1893769E-002  0.6309090E+02  0.7818608E-02  0.1385300E+00
         -1   -1    0    0  501    0 -0.00000000000E+00  0.00000000000E+00  0.67172174507E+00  0.67174065263E+00  0.50400000000E-02 0.  1.
          1   -1    0    0    0  501  0.00000000000E+00 -0.00000000000E+00 -0.14814190180E+04  0.14814190180E+04  0.50400000000E-02 0.  1.
          2    1    1    2    0  502  0.43607302326E+01 -0.24916835574E+02 -0.11831409736E+04  0.11834113520E+04  0.25500000000E-02 0. -1.
         -2    1    1    2  502    0 -0.43607302326E+01  0.24916835574E+02 -0.29760632269E+03  0.29867940668E+03  0.25500000000E-02 0. -1.
<mgrwt>
<rscale>  0 0.63090899E+02</rscale>
<asrwt>0</asrwt>
<pdfrwt beam="2">  1        1 0.22790800E+00 0.63090899E+02</pdfrwt>
<pdfrwt beam="1">  1       -1 0.10334445E-03 0.63090899E+02</pdfrwt>
<totfact> 0.29084721E+05</totfact>
</mgrwt>
</event>
<event>
 4    1  0.1893769E-002  0.7435288E+02  0.7818608E-02  0.1345887E+00
         -1   -1    0    0  501    0 -0.00000000000E+00  0.00000000000E+00  0.27052997803E+03  0.27052997808E+03  0.50400000000E-02 0. -1.
          1   -1    0    0    0  501  0.00000000000E+00 -0.00000000000E+00 -0.51088138650E+01  0.51088163511E+01  0.50400000000E-02 0. -1.
          2    1    1    2    0  502 -0.32979517698E+02 -0.95412368214E+01  0.79839019576E+02  0.86907726014E+02  0.25500000000E-02 0.  1.
         -2    1    1    2  502    0  0.32979517698E+02  0.95412368214E+01  0.18558214459E+03  0.18873106841E+03  0.25500000000E-02 0.  1.
<mgrwt>
<rscale>  0 0.74352879E+02</rscale>
<asrwt>0</asrwt>
<pdfrwt beam="2">  1        1 0.78597150E-03 0.74352879E+02</pdfrwt>
<pdfrwt beam="1">  1       -1 0.41620000E-01 0.74352879E+02</pdfrwt>
<totfact> 0.10692591E+05</totfact>
</mgrwt>
</event>
<event>
 4    1  0.1893769E-002  0.4624095E+02  0.7818608E-02  0.1466740E+00
          1   -1    0    0    0  501  0.00000000000E+00  0.00000000000E+00  0.12015017073E+03  0.12015017084E+03  0.50400000000E-02 0.  1.
         -1   -1    0    0  501    0 -0.00000000000E+00 -0.00000000000E+00 -0.44490679687E+01  0.44490708234E+01  0.50400000000E-02 0.  1.
          2    1    1    2    0  502  0.18479002422E+02 -0.11100977785E+02  0.80370925275E+02  0.83211723179E+02  0.25500000000E-02 0. -1.
         -2    1    1    2  502    0 -0.18479002422E+02  0.11100977785E+02  0.35330177488E+02  0.41387518483E+02  0.25500000000E-02 0. -1.
<mgrwt>
<rscale>  0 0.46240954E+02</rscale>
<asrwt>0</asrwt>
<pdfrwt beam="1">  1        1 0.18484643E-01 0.46240954E+02</pdfrwt>
<pdfrwt beam="2">  1       -1 0.68447217E-03 0.46240954E+02</pdfrwt>
<totfact> 0.63007633E+05</totfact>
</mgrwt>
</event>
<event>
 4    1  0.1893769E-002  0.6629444E+02  0.7818608E-02  0.1373167E+00
         -1   -1    0    0  501    0 -0.00000000000E+00  0.00000000000E+00  0.24118511458E+01  0.24118564117E+01  0.50400000000E-02 0. -1.
          1   -1    0    0    0  501  0.00000000000E+00 -0.00000000000E+00 -0.45555757097E+03  0.45555757100E+03  0.50400000000E-02 0. -1.
          2    1    1    2    0  502 -0.24885298201E+02 -0.16779171402E+02 -0.32375887264E+03  0.32514708407E+03  0.25500000000E-02 0.  1.
         -2    1    1    2  502    0  0.24885298201E+02  0.16779171402E+02 -0.12938684718E+03  0.13282234334E+03  0.25500000000E-02 0.  1.
<mgrwt>
<rscale>  0 0.66294442E+02</rscale>
<asrwt>0</asrwt>
<pdfrwt beam="2">  1        1 0.70085712E-01 0.66294442E+02</pdfrwt>
<pdfrwt beam="1">  1       -1 0.37105479E-03 0.66294442E+02</pdfrwt>
<totfact> 0.31603424E+05</totfact>
</mgrwt>
</event>
<event>
 4    1  0.1893769E-002  0.4299303E+02  0.7818608E-02  0.1487274E+00
          1   -1    0    0    0  501  0.00000000000E+00  0.00000000000E+00  0.81305753214E+01  0.81305768835E+01  0.50400000000E-02 0.  1.
         -1   -1    0    0  501    0 -0.00000000000E+00 -0.00000000000E+00 -0.56834846007E+02  0.56834846231E+02  0.50400000000E-02 0.  1.
          2    1    1    2    0  502  0.20158920268E+02  0.52213890139E+01 -0.32412675724E+02  0.38525660587E+02  0.25500000000E-02 0. -1.
         -2    1    1    2  502    0 -0.20158920268E+02 -0.52213890139E+01 -0.16291594962E+02  0.26439762527E+02  0.25500000000E-02 0. -1.
<mgrwt>
<rscale>  0 0.42993025E+02</rscale>
<asrwt>0</asrwt>
<pdfrwt beam="1">  1        1 0.12508579E-02 0.42993025E+02</pdfrwt>
<pdfrwt beam="2">  1       -1 0.87438223E-02 0.42993025E+02</pdfrwt>
<totfact> 0.58268256E+05</totfact>
</mgrwt>
</event>
<event>
 4    1  0.1893769E-002  0.6842280E+02  0.7818608E-02  0.1365540E+00
         -1   -1    0    0  501    0 -0.00000000000E+00  0.00000000000E+00  0.13090899472E+01  0.13090996492E+01  0.50400000000E-02 0.  1.
          1   -1    0    0    0  501  0.00000000000E+00 -0.00000000000E+00 -0.89406820877E+03  0.89406820878E+03  0.50400000000E-02 0.  1.
          2    1    1    2    0  502  0.14348021561E+02  0.16220019464E+02 -0.79296339611E+03  0.79325903861E+03  0.25500000000E-02 0.  1.
         -2    1    1    2  502    0 -0.14348021561E+02 -0.16220019464E+02 -0.99795722710E+02  0.10211826982E+03  0.25500000000E-02 0.  1.
<mgrwt>
<rscale>  0 0.68422805E+02</rscale>
<asrwt>0</asrwt>
<pdfrwt beam="2">  1        1 0.13754847E+00 0.68422805E+02</pdfrwt>
<pdfrwt beam="1">  1       -1 0.20139992E-03 0.68422805E+02</pdfrwt>
<totfact> 0.29444238E+05</totfact>
</mgrwt>
</event>
<event>
 4    1  0.1893769E-002  0.5947438E+02  0.7818608E-02  0.1400051E+00
          1   -1    0    0    0  501  0.00000000000E+00  0.00000000000E+00  0.48281390005E+03  0.48281390008E+03  0.50400000000E-02 0.  1.
         -1   -1    0    0  501    0 -0.00000000000E+00 -0.00000000000E+00 -0.18315521940E+01  0.18315591284E+01  0.50400000000E-02 0.  1.
          2    1    1    2    0  502  0.16871936601E+02  0.24484381369E+02  0.23729997573E+03  0.23915565154E+03  0.25500000000E-02 0. -1.
         -2    1    1    2  502    0 -0.16871936601E+02 -0.24484381369E+02  0.24368237213E+03  0.24548980766E+03  0.25500000000E-02 0. -1.
<mgrwt>
<rscale>  0 0.59474383E+02</rscale>
<asrwt>0</asrwt>
<pdfrwt beam="1">  1        1 0.74279113E-01 0.59474383E+02</pdfrwt>
<pdfrwt beam="2">  1       -1 0.28177760E-03 0.59474383E+02</pdfrwt>
<totfact> 0.41992512E+05</totfact>
</mgrwt>
</event>
<event>
 4    1  0.1893769E-002  0.4830675E+02  0.7818608E-02  0.1454694E+00
          1   -1    0    0    0  501  0.00000000000E+00  0.00000000000E+00  0.10146987914E+04  0.10146987914E+04  0.50400000000E-02 0. -1.
         -1   -1    0    0  501    0 -0.00000000000E+00 -0.00000000000E+00 -0.57492371042E+00  0.57494580127E+00  0.50400000000E-02 0. -1.
          2    1    1    2    0  502  0.10986589395E+02 -0.21378781149E+02  0.55692273069E+03  0.55744119456E+03  0.25500000000E-02 0.  1.
         -2    1    1    2  502    0 -0.10986589395E+02  0.21378781149E+02  0.45720113696E+03  0.45783254261E+03  0.25500000000E-02 0.  1.
<mgrwt>
<rscale>  0 0.48306754E+02</rscale>
<asrwt>0</asrwt>
<pdfrwt beam="1">  1        1 0.15610604E+00 0.48306754E+02</pdfrwt>
<pdfrwt beam="2">  1       -1 0.88452333E-04 0.48306754E+02</pdfrwt>
<totfact> 0.68850080E+05</totfact>
</mgrwt>
</event>
<event>
 4    1  0.1893769E-002  0.1039068E+03  0.7818608E-02  0.1272289E+00
          1   -1    0    0    0  501  0.00000000000E+00  0.00000000000E+00  0.14244243665E+04  0.14244243665E+04  0.50400000000E-02 0.  1.
         -1   -1    0    0  501    0 -0.00000000000E+00 -0.00000000000E+00 -0.18949064264E+01  0.18949131290E+01  0.50400000000E-02 0.  1.
          2    1    1    2    0  502 -0.23068708338E+02  0.36914550587E+02  0.11005639470E+04  0.11014244644E+04  0.25500000000E-02 0. -1.
         -2    1    1    2  502    0  0.23068708338E+02 -0.36914550587E+02  0.32196551309E+03  0.32489481525E+03  0.25500000000E-02 0. -1.
<mgrwt>
<rscale>  0 0.10390680E+03</rscale>
<asrwt>0</asrwt>
<pdfrwt beam="1">  1        1 0.21914143E+00 0.10390680E+03</pdfrwt>
<pdfrwt beam="2">  1       -1 0.29152562E-03 0.10390680E+03</pdfrwt>
<totfact> 0.81204529E+04</totfact>
</mgrwt>
</event>
<event>
 4    1  0.1893769E-002  0.1000094E+03  0.7818608E-02  0.1280276E+00
         -1   -1    0    0  501    0 -0.00000000000E+00  0.00000000000E+00  0.16136445202E+01  0.16136523910E+01  0.50400000000E-02 0. -1.
          1   -1    0    0    0  501  0.00000000000E+00 -0.00000000000E+00 -0.15495743557E+04  0.15495743557E+04  0.50400000000E-02 0. -1.
          2    1    1    2    0  502 -0.30794534180E+02 -0.33256900489E+02 -0.44636740848E+03  0.44866266630E+03  0.25500000000E-02 0.  1.
         -2    1    1    2  502    0  0.30794534180E+02  0.33256900489E+02 -0.11015933027E+04  0.11025253418E+04  0.25500000000E-02 0.  1.
<mgrwt>
<rscale>  0 0.10000937E+03</rscale>
<asrwt>0</asrwt>
<pdfrwt beam="2">  1        1 0.23839486E+00 0.10000937E+03</pdfrwt>
<pdfrwt beam="1">  1       -1 0.24825485E-03 0.10000937E+03</pdfrwt>
<totfact> 0.84064057E+04</totfact>
</mgrwt>
</event>
<event>
 4    1  0.1893769E-002  0.7773538E+02  0.7818608E-02  0.1335604E+00
         -1   -1    0    0  501    0 -0.00000000000E+00  0.00000000000E+00  0.87151270060E+00  0.87152727376E+00  0.50400000000E-02 0.  1.
          1   -1    0    0    0  501  0.00000000000E+00 -0.00000000000E+00 -0.17334050186E+04  0.17334050186E+04  0.50400000000E-02 0.  1.
          2    1    1    2    0  502 -0.19101778971E+02 -0.22549651589E+02 -0.14294926874E+04  0.14297981355E+04  0.25500000000E-02 0.  1.
         -2    1    1    2  502    0  0.19101778971E+02  0.22549651589E+02 -0.30304081849E+03  0.30447841044E+03  0.25500000000E-02 0.  1.
<mgrwt>
<rscale>  0 0.77735375E+02</rscale>
<asrwt>0</asrwt>
<pdfrwt beam="2">  1        1 0.26667494E+00 0.77735375E+02</pdfrwt>
<pdfrwt beam="1">  1       -1 0.13408139E-03 0.77735375E+02</pdfrwt>
<totfact> 0.14626018E+05</totfact>
</mgrwt>
</event>
<event>
 4    1  0.1893769E-002  0.5057410E+02  0.7818608E-02  0.1442269E+00
          1   -1    0    0    0  501  0.00000000000E+00  0.00000000000E+00  0.75277759089E+01  0.75277775961E+01  0.50400000000E-02 0. -1.
         -1   -1    0    0  501    0 -0.00000000000E+00 -0.00000000000E+00 -0.84943389381E+02  0.84943389531E+02  0.50400000000E-02 0. -1.
          2    1    1    2    0  502 -0.21235030130E+02 -0.54671903740E+01 -0.15679887707E+02  0.26956920452E+02  0.25500000000E-02 0. -1.
         -2    1    1    2  502    0  0.21235030130E+02  0.54671903740E+01 -0.61735725765E+02  0.65514246675E+02  0.25500000000E-02 0. -1.
<mgrwt>
<rscale>  0 0.50574100E+02</rscale>
<asrwt>0</asrwt>
<pdfrwt beam="1">  1        1 0.11581196E-02 0.50574100E+02</pdfrwt>
<pdfrwt beam="2">  1       -1 0.13068213E-01 0.50574100E+02</pdfrwt>
<totfact> 0.37127114E+05</totfact>
</mgrwt>
</event>
<event>
 4    1  0.1893769E-002  0.6659178E+02  0.7818608E-02  0.1372082E+00
          1   -1    0    0    0  501  0.00000000000E+00  0.00000000000E+00  0.17219567213E+02  0.17219567951E+02  0.50400000000E-02 0. -1.
         -1   -1    0    0  501    0 -0.00000000000E+00 -0.00000000000E+00 -0.64381189261E+02  0.64381189458E+02  0.50400000000E-02 0. -1.
          2    1    1    2    0  502  0.30745808989E+02 -0.33866913202E+01 -0.84810788765E+01  0.32073402593E+02  0.25500000000E-02 0.  1.
         -2    1    1    2  502    0 -0.30745808989E+02  0.33866913202E+01 -0.38680543171E+02  0.49527354815E+02  0.25500000000E-02 0.  1.
<mgrwt>
<rscale>  0 0.66591779E+02</rscale>
<asrwt>0</asrwt>
<pdfrwt beam="1">  1        1 0.26491643E-02 0.66591779E+02</pdfrwt>
<pdfrwt beam="2">  1       -1 0.99047983E-02 0.66591779E+02</pdfrwt>
<totfact> 0.19425292E+05</totfact>
</mgrwt>
</event>
<event>
 4    1  0.1893769E-002  0.5274464E+02  0.7818608E-02  0.1431076E+00
          1   -1    0    0    0  501  0.00000000000E+00  0.00000000000E+00  0.13476609579E+02  0.13476610522E+02  0.50400000000E-02 0. -1.
         -1   -1    0    0  501    0 -0.00000000000E+00 -0.00000000000E+00 -0.51607884637E+02  0.51607884883E+02  0.50400000000E-02 0. -1.
          2    1    1    2    0  502 -0.47444247431E+01  0.25725990501E+02 -0.14942827121E+02  0.30126802722E+02  0.25500000000E-02 0. -1.
         -2    1    1    2  502    0  0.47444247431E+01 -0.25725990501E+02 -0.23188447937E+02  0.34957692682E+02  0.25500000000E-02 0. -1.
<mgrwt>
<rscale>  0 0.52744643E+02</rscale>
<asrwt>0</asrwt>
<pdfrwt beam="1">  1        1 0.20733247E-02 0.52744643E+02</pdfrwt>
<pdfrwt beam="2">  1       -1 0.79396745E-02 0.52744643E+02</pdfrwt>
<totfact> 0.35703636E+05</totfact>
</mgrwt>
</event>
<event>
 4    1  0.1893769E-002  0.4021895E+02  0.7818608E-02  0.1506606E+00
          1   -1    0    0    0  501  0.00000000000E+00  0.00000000000E+00  0.52135157819E+03  0.52135157822E+03  0.50400000000E-02 0.  1.
         -1   -1    0    0  501    0 -0.00000000000E+00 -0.00000000000E+00 -0.77565052375E+00  0.77566689796E+00  0.50400000000E-02 0.  1.
          2    1    1    2    0  502  0.16314848625E+02  0.11667616062E+02  0.27902611277E+03  0.27974609768E+03  0.25500000000E-02 0.  1.
         -2    1    1    2  502    0 -0.16314848625E+02 -0.11667616062E+02  0.24154981490E+03  0.24238114744E+03  0.25500000000E-02 0.  1.
<mgrwt>
<rscale>  0 0.40218946E+02</rscale>
<asrwt>0</asrwt>
<pdfrwt beam="1">  1        1 0.80208035E-01 0.40218946E+02</pdfrwt>
<pdfrwt beam="2">  1       -1 0.11933196E-03 0.40218946E+02</pdfrwt>
<totfact> 0.11154451E+06</totfact>
</mgrwt>
</event>
<event>
 4    1  0.1893769E-002  0.9953890E+02  0.7818608E-02  0.1281269E+00
         -1   -1    0    0  501    0 -0.00000000000E+00  0.00000000000E+00  0.19622162975E+01  0.19622227702E+01  0.50400000000E-02 0. -1.
          1   -1    0    0    0  501  0.00000000000E+00 -0.00000000000E+00 -0.12623450508E+04  0.12623450508E+04  0.50400000000E-02 0. -1.
          2    1    1    2    0  502 -0.47843784217E+02 -0.12472453917E+02 -0.70249971164E+03  0.70423748456E+03  0.25500000000E-02 0.  1.
         -2    1    1    2  502    0  0.47843784217E+02  0.12472453917E+02 -0.55788312289E+03  0.56006978905E+03  0.25500000000E-02 0.  1.
<mgrwt>
<rscale>  0 0.99538900E+02</rscale>
<asrwt>0</asrwt>
<pdfrwt beam="2">  1        1 0.19420628E+00 0.99538900E+02</pdfrwt>
<pdfrwt beam="1">  1       -1 0.30188094E-03 0.99538900E+02</pdfrwt>
<totfact> 0.98297353E+04</totfact>
</mgrwt>
</event>
<event>
 4    1  0.1893769E-002  0.5171435E+02  0.7818608E-02  0.1436308E+00
          1   -1    0    0    0  501  0.00000000000E+00  0.00000000000E+00  0.11593210541E+01  0.11593320094E+01  0.50400000000E-02 0.  1.
         -1   -1    0    0  501    0 -0.00000000000E+00 -0.00000000000E+00 -0.57670854878E+03  0.57670854880E+03  0.50400000000E-02 0.  1.
          2    1    1    2    0  502 -0.19966893233E+02  0.48171924580E+01 -0.46328872834E+03  0.46374381719E+03  0.25500000000E-02 0.  1.
         -2    1    1    2  502    0  0.19966893233E+02 -0.48171924580E+01 -0.11226049938E+03  0.11412406361E+03  0.25500000000E-02 0.  1.
<mgrwt>
<rscale>  0 0.51714351E+02</rscale>
<asrwt>0</asrwt>
<pdfrwt beam="1">  1        1 0.17835839E-03 0.51714351E+02</pdfrwt>
<pdfrwt beam="2">  1       -1 0.88724164E-01 0.51714351E+02</pdfrwt>
<totfact> 0.18267321E+05</totfact>
</mgrwt>
</event>
<event>
 4    1  0.1893769E-002  0.9395928E+02  0.7818608E-02  0.1293537E+00
          1   -1    0    0    0  501  0.00000000000E+00  0.00000000000E+00  0.95535326077E+01  0.95535339371E+01  0.50400000000E-02 0.  1.
         -1   -1    0    0  501    0 -0.00000000000E+00 -0.00000000000E+00 -0.23102308023E+03  0.23102308028E+03  0.50400000000E-02 0.  1.
          2    1    1    2    0  502  0.40123345944E+02 -0.54577404928E+00 -0.48179106191E+02  0.62700933318E+02  0.25500000000E-02 0.  1.
         -2    1    1    2  502    0 -0.40123345944E+02  0.54577404928E+00 -0.17329044143E+03  0.17787568090E+03  0.25500000000E-02 0.  1.
<mgrwt>
<rscale>  0 0.93959283E+02</rscale>
<asrwt>0</asrwt>
<pdfrwt beam="1">  1        1 0.14697745E-02 0.93959283E+02</pdfrwt>
<pdfrwt beam="2">  1       -1 0.35542008E-01 0.93959283E+02</pdfrwt>
<totfact> 0.61444587E+04</totfact>
</mgrwt>
</event>
<event>
 4    1  0.1893769E-002  0.4870793E+02  0.7818608E-02  0.1452438E+00
         -1   -1    0    0  501    0 -0.00000000000E+00  0.00000000000E+00  0.32334467425E+00  0.32338395131E+00  0.50400000000E-02 0.  1.
          1   -1    0    0    0  501  0.00000000000E+00 -0.00000000000E+00 -0.18342026767E+04  0.18342026767E+04  0.50400000000E-02 0.  1.
          2    1    1    2    0  502 -0.45932624293E+01  0.23734370903E+02 -0.10280145106E+04  0.10282987175E+04  0.25500000000E-02 0.  1.
         -2    1    1    2  502    0  0.45932624293E+01 -0.23734370903E+02 -0.80586482138E+03  0.80622734310E+03  0.25500000000E-02 0.  1.
<mgrwt>
<rscale>  0 0.48707934E+02</rscale>
<asrwt>0</asrwt>
<pdfrwt beam="2">  1        1 0.28217670E+00 0.48707934E+02</pdfrwt>
<pdfrwt beam="1">  1       -1 0.49749825E-04 0.48707934E+02</pdfrwt>
<totfact> 0.45169311E+05</totfact>
</mgrwt>
</event>
<event>
 4    1  0.1893769E-002  0.5567042E+02  0.7818608E-02  0.1416955E+00
         -1   -1    0    0  501    0 -0.00000000000E+00  0.00000000000E+00  0.30548427452E+02  0.30548427867E+02  0.50400000000E-02 0. -1.
          1   -1    0    0    0  501  0.00000000000E+00 -0.00000000000E+00 -0.25362975087E+02  0.25362975588E+02  0.50400000000E-02 0. -1.
          2    1    1    2    0  502 -0.25500170089E+02 -0.11149871397E+02  0.30645649053E+01  0.27999461982E+02  0.25500000000E-02 0. -1.
         -2    1    1    2  502    0  0.25500170089E+02  0.11149871397E+02  0.21208874593E+01  0.27911941474E+02  0.25500000000E-02 0. -1.
<mgrwt>
<rscale>  0 0.55670424E+02</rscale>
<asrwt>0</asrwt>
<pdfrwt beam="2">  1        1 0.39019962E-02 0.55670424E+02</pdfrwt>
<pdfrwt beam="1">  1       -1 0.46997582E-02 0.55670424E+02</pdfrwt>
<totfact> 0.33034107E+05</totfact>
</mgrwt>
</event>
<event>
 4    1  0.1893769E-002  0.1396212E+03  0.7818608E-02  0.1213840E+00
         -1   -1    0    0  501    0 -0.00000000000E+00  0.00000000000E+00  0.32040995539E+02  0.32040995935E+02  0.50400000000E-02 0.  1.
          1   -1    0    0    0  501  0.00000000000E+00 -0.00000000000E+00 -0.15210263583E+03  0.15210263592E+03  0.50400000000E-02 0.  1.
          2    1    1    2    0  502  0.15263308859E+02 -0.47885622115E+02  0.38705027034E+01  0.50408156090E+02  0.25500000000E-02 0. -1.
         -2    1    1    2  502    0 -0.15263308859E+02  0.47885622115E+02 -0.12393214300E+03  0.13373547576E+03  0.25500000000E-02 0. -1.
<mgrwt>
<rscale>  0 0.13962120E+03</rscale>
<asrwt>0</asrwt>
<pdfrwt beam="2">  1        1 0.23400405E-01 0.13962120E+03</pdfrwt>
<pdfrwt beam="1">  1       -1 0.49293841E-02 0.13962120E+03</pdfrwt>
<totfact> 0.34523137E+04</totfact>
</mgrwt>
</event>
<event>
 4    1  0.1893769E-002  0.4616633E+02  0.7818608E-02  0.1467189E+00
         -1   -1    0    0  501    0 -0.00000000000E+00  0.00000000000E+00  0.39256210772E+03  0.39256210775E+03  0.50400000000E-02 0.  1.
          1   -1    0    0    0  501  0.00000000000E+00 -0.00000000000E+00 -0.13573154375E+01  0.13573247947E+01  0.50400000000E-02 0.  1.
          2    1    1    2    0  502 -0.21596819984E+02  0.44946797463E+01  0.25360388208E+03  0.25456149315E+03  0.25500000000E-02 0. -1.
         -2    1    1    2  502    0  0.21596819984E+02 -0.44946797463E+01  0.13760091020E+03  0.13935793940E+03  0.25500000000E-02 0. -1.
<mgrwt>
<rscale>  0 0.46166328E+02</rscale>
<asrwt>0</asrwt>
<pdfrwt beam="2">  1        1 0.20881791E-03 0.46166328E+02</pdfrwt>
<pdfrwt beam="1">  1       -1 0.60394337E-01 0.46166328E+02</pdfrwt>
<totfact> 0.30351341E+05</totfact>
</mgrwt>
</event>
<event>
 4    1  0.1893769E-002  0.7476792E+02  0.7818608E-02  0.1344591E+00
          1   -1    0    0    0  501  0.00000000000E+00  0.00000000000E+00  0.14574409783E+02  0.14574410654E+02  0.50400000000E-02 0. -1.
         -1   -1    0    0  501    0 -0.00000000000E+00 -0.00000000000E+00 -0.95891394571E+02  0.95891394704E+02  0.50400000000E-02 0. -1.
          2    1    1    2    0  502  0.28967835938E+02  0.17633313896E+02 -0.63901508233E+02  0.72342740056E+02  0.25500000000E-02 0.  1.
         -2    1    1    2  502    0 -0.28967835938E+02 -0.17633313896E+02 -0.17415476556E+02  0.38123065302E+02  0.25500000000E-02 0.  1.
<mgrwt>
<rscale>  0 0.74767922E+02</rscale>
<asrwt>0</asrwt>
<pdfrwt beam="1">  1        1 0.22422170E-02 0.74767922E+02</pdfrwt>
<pdfrwt beam="2">  1       -1 0.14752522E-01 0.74767922E+02</pdfrwt>
<totfact> 0.13631929E+05</totfact>
</mgrwt>
</event>
<event>
 4    1  0.1893769E-002  0.6437810E+02  0.7818608E-02  0.1380326E+00
          1   -1    0    0    0  501  0.00000000000E+00  0.00000000000E+00  0.84186863412E+01  0.84186878498E+01  0.50400000000E-02 0. -1.
         -1   -1    0    0  501    0 -0.00000000000E+00 -0.00000000000E+00 -0.12307559778E+03  0.12307559788E+03  0.50400000000E-02 0. -1.
          2    1    1    2    0  502 -0.28192534520E+02 -0.61096872933E+01 -0.28156155001E+02  0.40310251207E+02  0.25500000000E-02 0.  1.
         -2    1    1    2  502    0  0.28192534520E+02  0.61096872933E+01 -0.86500756439E+02  0.91184034527E+02  0.25500000000E-02 0.  1.
<mgrwt>
<rscale>  0 0.64378101E+02</rscale>
<asrwt>0</asrwt>
<pdfrwt beam="1">  1        1 0.12951827E-02 0.64378101E+02</pdfrwt>
<pdfrwt beam="2">  1       -1 0.18934706E-01 0.64378101E+02</pdfrwt>
<totfact> 0.19047405E+05</totfact>
</mgrwt>
</event>
<event>
 4    1  0.1893769E-002  0.4170780E+02  0.7818608E-02  0.1496007E+00
          1   -1    0    0    0  501  0.00000000000E+00  0.00000000000E+00  0.36359679170E+03  0.36359679174E+03  0.50400000000E-02 0. -1.
         -1   -1    0    0  501    0 -0.00000000000E+00 -0.00000000000E+00 -0.11960589263E+01  0.11960695451E+01  0.50400000000E-02 0. -1.
          2    1    1    2    0  502 -0.10525631800E+02  0.17807664939E+02  0.15808725242E+03  0.15943488087E+03  0.25500000000E-02 0.  1.
         -2    1    1    2  502    0  0.10525631800E+02 -0.17807664939E+02  0.20431348036E+03  0.20535798041E+03  0.25500000000E-02 0.  1.
<mgrwt>
<rscale>  0 0.41707799E+02</rscale>
<asrwt>0</asrwt>
<pdfrwt beam="1">  1        1 0.55937945E-01 0.41707799E+02</pdfrwt>
<pdfrwt beam="2">  1       -1 0.18400996E-03 0.41707799E+02</pdfrwt>
<totfact> 0.97421846E+05</totfact>
</mgrwt>
</event>
<event>
 4    1  0.1893769E-002  0.4347553E+02  0.7818608E-02  0.1484089E+00
         -1   -1    0    0  501    0 -0.00000000000E+00  0.00000000000E+00  0.36801936985E+00  0.36805387946E+00  0.50400000000E-02 0. -1.
          1   -1    0    0    0  501  0.00000000000E+00 -0.00000000000E+00 -0.12839221673E+04  0.12839221673E+04  0.50400000000E-02 0. -1.
          2    1    1    2    0  502  0.20367406818E+02 -0.54396531645E+01 -0.79839566805E+03  0.79867394088E+03  0.25500000000E-02 0. -1.
         -2    1    1    2  502    0 -0.20367406818E+02  0.54396531645E+01 -0.48515847990E+03  0.48561628032E+03  0.25500000000E-02 0. -1.
<mgrwt>
<rscale>  0 0.43475528E+02</rscale>
<asrwt>0</asrwt>
<pdfrwt beam="2">  1        1 0.19752290E+00 0.43475528E+02</pdfrwt>
<pdfrwt beam="1">  1       -1 0.56622048E-04 0.43475528E+02</pdfrwt>
<totfact> 0.81171218E+05</totfact>
</mgrwt>
</event>
<event>
 4    1  0.1893769E-002  0.4877879E+02  0.7818608E-02  0.1452042E+00
         -1   -1    0    0  501    0 -0.00000000000E+00  0.00000000000E+00  0.41376687355E+01  0.41376718051E+01  0.50400000000E-02 0.  1.
          1   -1    0    0    0  501  0.00000000000E+00 -0.00000000000E+00 -0.14376268938E+03  0.14376268947E+03  0.50400000000E-02 0.  1.
          2    1    1    2    0  502  0.15016989857E+02  0.15333790022E+02 -0.10493834173E+03  0.10711064686E+03  0.25500000000E-02 0.  1.
         -2    1    1    2  502    0 -0.15016989857E+02 -0.15333790022E+02 -0.34686678923E+02  0.40789714414E+02  0.25500000000E-02 0.  1.
<mgrwt>
<rscale>  0 0.48778791E+02</rscale>
<asrwt>0</asrwt>
<pdfrwt beam="2">  1        1 0.22117333E-01 0.48778791E+02</pdfrwt>
<pdfrwt beam="1">  1       -1 0.63656477E-03 0.48778791E+02</pdfrwt>
<totfact> 0.56630272E+05</totfact>
</mgrwt>
</event>
<event>
 4    1  0.1893769E-002  0.9688102E+02  0.7818608E-02  0.1286995E+00
         -1   -1    0    0  501    0 -0.00000000000E+00  0.00000000000E+00  0.13487669759E+03  0.13487669768E+03  0.50400000000E-02 0.  1.
          1   -1    0    0    0  501  0.00000000000E+00 -0.00000000000E+00 -0.17397246643E+02  0.17397247373E+02  0.50400000000E-02 0.  1.
          2    1    1    2    0  502  0.82008596818E+01 -0.44930220585E+02  0.84108203633E+02  0.95708770477E+02  0.25500000000E-02 0. -1.
         -2    1    1    2  502    0 -0.82008596818E+01  0.44930220585E+02  0.33371247311E+02  0.56565174577E+02  0.25500000000E-02 0. -1.
<mgrwt>
<rscale>  0 0.96881025E+02</rscale>
<asrwt>0</asrwt>
<pdfrwt beam="2">  1        1 0.26764996E-02 0.96881025E+02</pdfrwt>
<pdfrwt beam="1">  1       -1 0.20750261E-01 0.96881025E+02</pdfrwt>
<totfact> 0.65443661E+04</totfact>
</mgrwt>
</event>
<event>
 4    1  0.1893769E-002  0.1163043E+03  0.7818608E-02  0.1249321E+00
         -1   -1    0    0  501    0 -0.00000000000E+00  0.00000000000E+00  0.21842178395E+03  0.21842178401E+03  0.50400000000E-02 0. -1.
          1   -1    0    0    0  501  0.00000000000E+00 -0.00000000000E+00 -0.15482299584E+02  0.15482300404E+02  0.50400000000E-02 0. -1.
          2    1    1    2    0  502 -0.49293118714E+02  0.11733213536E+02  0.15885567434E+03  0.16674113208E+03  0.25500000000E-02 0.  1.
         -2    1    1    2  502    0  0.49293118714E+02 -0.11733213536E+02  0.44083810030E+02  0.67162952330E+02  0.25500000000E-02 0.  1.
<mgrwt>
<rscale>  0 0.11630428E+03</rscale>
<asrwt>0</asrwt>
<pdfrwt beam="2">  1        1 0.23818924E-02 0.11630428E+03</pdfrwt>
<pdfrwt beam="1">  1       -1 0.33603350E-01 0.11630428E+03</pdfrwt>
<totfact> 0.35690974E+04</totfact>
</mgrwt>
</event>
<event>
 4    1  0.1893769E-002  0.4055795E+02  0.7818608E-02  0.1504145E+00
          1   -1    0    0    0  501  0.00000000000E+00  0.00000000000E+00  0.17090394698E+04  0.17090394698E+04  0.50400000000E-02 0. -1.
         -1   -1    0    0  501    0 -0.00000000000E+00 -0.00000000000E+00 -0.24059814839E+00  0.24065093104E+00  0.50400000000E-02 0. -1.
          2    1    1    2    0  502 -0.19850870838E+02 -0.41200795825E+01  0.87346765392E+03  0.87370290979E+03  0.25500000000E-02 0.  1.
         -2    1    1    2  502    0  0.19850870838E+02  0.41200795825E+01  0.83533121770E+03  0.83557721092E+03  0.25500000000E-02 0.  1.
<mgrwt>
<rscale>  0 0.40557951E+02</rscale>
<asrwt>0</asrwt>
<pdfrwt beam="1">  1        1 0.26291449E+00 0.40557951E+02</pdfrwt>
<pdfrwt beam="2">  1       -1 0.37021226E-04 0.40557951E+02</pdfrwt>
<totfact> 0.77029346E+05</totfact>
</mgrwt>
</event>
<event>
 4    1  0.1893769E-002  0.7602941E+02  0.7818608E-02  0.1340713E+00
         -1   -1    0    0  501    0 -0.00000000000E+00  0.00000000000E+00  0.31110518576E+01  0.31110559401E+01  0.50400000000E-02 0. -1.
          1   -1    0    0    0  501  0.00000000000E+00 -0.00000000000E+00 -0.46451071255E+03  0.46451071257E+03  0.50400000000E-02 0. -1.
          2    1    1    2    0  502 -0.30150930231E+02 -0.77366210493E+01 -0.36491465047E+03  0.36623986134E+03  0.25500000000E-02 0.  1.
         -2    1    1    2  502    0  0.30150930231E+02  0.77366210493E+01 -0.96485010215E+02  0.10138190717E+03  0.25500000000E-02 0.  1.
<mgrwt>
<rscale>  0 0.76029412E+02</rscale>
<asrwt>0</asrwt>
<pdfrwt beam="2">  1        1 0.71463131E-01 0.76029412E+02</pdfrwt>
<pdfrwt beam="1">  1       -1 0.47862405E-03 0.76029412E+02</pdfrwt>
<totfact> 0.22236983E+05</totfact>
</mgrwt>
</event>
<event>
 4    1  0.1893769E-002  0.4296645E+02  0.7818608E-02  0.1487451E+00
          1   -1    0    0    0  501  0.00000000000E+00  0.00000000000E+00  0.92058481412E+03  0.92058481413E+03  0.50400000000E-02 0. -1.
         -1   -1    0    0  501    0 -0.00000000000E+00 -0.00000000000E+00 -0.50133051881E+00  0.50135585236E+00  0.50400000000E-02 0. -1.
          2    1    1    2    0  502  0.11755672956E+02 -0.16938648819E+02  0.33067802039E+03  0.33132018780E+03  0.25500000000E-02 0. -1.
         -2    1    1    2  502    0 -0.11755672956E+02  0.16938648819E+02  0.58940546321E+03  0.58976598218E+03  0.25500000000E-02 0. -1.
<mgrwt>
<rscale>  0 0.42966449E+02</rscale>
<asrwt>0</asrwt>
<pdfrwt beam="1">  1        1 0.14162605E+00 0.42966449E+02</pdfrwt>
<pdfrwt beam="2">  1       -1 0.77131019E-04 0.42966449E+02</pdfrwt>
<totfact> 0.93866628E+05</totfact>
</mgrwt>
</event>
<event>
 4    1  0.1893769E-002  0.9130374E+02  0.7818608E-02  0.1299725E+00
          1   -1    0    0    0  501  0.00000000000E+00  0.00000000000E+00  0.53739476533E+02  0.53739476770E+02  0.50400000000E-02 0.  1.
         -1   -1    0    0  501    0 -0.00000000000E+00 -0.00000000000E+00 -0.38781420113E+02  0.38781420441E+02  0.50400000000E-02 0.  1.
          2    1    1    2    0  502 -0.38592713636E+02  0.11723697870E+02 -0.14189449840E+02  0.42757258224E+02  0.25500000000E-02 0. -1.
         -2    1    1    2  502    0  0.38592713636E+02 -0.11723697870E+02  0.29147506260E+02  0.49763638987E+02  0.25500000000E-02 0. -1.
<mgrwt>
<rscale>  0 0.91303740E+02</rscale>
<asrwt>0</asrwt>
<pdfrwt beam="1">  1        1 0.82676118E-02 0.91303740E+02</pdfrwt>
<pdfrwt beam="2">  1       -1 0.59663724E-02 0.91303740E+02</pdfrwt>
<totfact> 0.94417458E+04</totfact>
</mgrwt>
</event>
<event>
 4    1  0.1893769E-002  0.4358059E+02  0.7818608E-02  0.1483402E+00
          1   -1    0    0    0  501  0.00000000000E+00  0.00000000000E+00  0.82942899342E+02  0.82942899495E+02  0.50400000000E-02 0.  1.
         -1   -1    0    0  501    0 -0.00000000000E+00 -0.00000000000E+00 -0.57246244717E+01  0.57246266903E+01  0.50400000000E-02 0.  1.
          2    1    1    2    0  502  0.15318342436E+01  0.20650267111E+02  0.24804501494E+02  0.32311659641E+02  0.25500000000E-02 0.  1.
         -2    1    1    2  502    0 -0.15318342436E+01 -0.20650267111E+02  0.52413773376E+02  0.56355866544E+02  0.25500000000E-02 0.  1.
<mgrwt>
<rscale>  0 0.43580595E+02</rscale>
<asrwt>0</asrwt>
<pdfrwt beam="1">  1        1 0.12760446E-01 0.43580595E+02</pdfrwt>
<pdfrwt beam="2">  1       -1 0.88071169E-03 0.43580595E+02</pdfrwt>
<totfact> 0.69587606E+05</totfact>
</mgrwt>
</event>
<event>
 4    1  0.1893769E-002  0.4060757E+02  0.7818608E-02  0.1503787E+00
         -1   -1    0    0  501    0 -0.00000000000E+00  0.00000000000E+00  0.22148474315E+01  0.22148531659E+01  0.50400000000E-02 0. -1.
          1   -1    0    0    0  501  0.00000000000E+00 -0.00000000000E+00 -0.18612714659E+03  0.18612714665E+03  0.50400000000E-02 0. -1.
          2    1    1    2    0  502  0.13795729285E+02  0.14897033041E+02 -0.91929680559E+02  0.94145153428E+02  0.25500000000E-02 0. -1.
         -2    1    1    2  502    0 -0.13795729285E+02 -0.14897033041E+02 -0.91982618596E+02  0.94196846392E+02  0.25500000000E-02 0. -1.
<mgrwt>
<rscale>  0 0.40607575E+02</rscale>
<asrwt>0</asrwt>
<pdfrwt beam="2">  1        1 0.28634934E-01 0.40607575E+02</pdfrwt>
<pdfrwt beam="1">  1       -1 0.34074635E-03 0.40607575E+02</pdfrwt>
<totfact> 0.92889769E+05</totfact>
</mgrwt>
</event>
<event>
 4    1  0.1893769E-002  0.4544072E+02  0.7818608E-02  0.1471609E+00
         -1   -1    0    0  501    0 -0.00000000000E+00  0.00000000000E+00  0.15067084208E+03  0.15067084216E+03  0.50400000000E-02 0. -1.
          1   -1    0    0    0  501  0.00000000000E+00 -0.00000000000E+00 -0.34261067146E+01  0.34261104216E+01  0.50400000000E-02 0. -1.
          2    1    1    2    0  502 -0.12826417498E+02  0.17248117558E+02  0.48656364476E+02  0.53192634412E+02  0.25500000000E-02 0. -1.
         -2    1    1    2  502    0  0.12826417498E+02 -0.17248117558E+02  0.98588370887E+02  0.10090431817E+03  0.25500000000E-02 0. -1.
<mgrwt>
<rscale>  0 0.45440716E+02</rscale>
<asrwt>0</asrwt>
<pdfrwt beam="2">  1        1 0.52709366E-03 0.45440716E+02</pdfrwt>
<pdfrwt beam="1">  1       -1 0.23180129E-01 0.45440716E+02</pdfrwt>
<totfact> 0.43537293E+05</totfact>
</mgrwt>
</event>
<event>
 4    1  0.1893769E-002  0.6407308E+02  0.7818608E-02  0.1381493E+00
         -1   -1    0    0  501    0 -0.00000000000E+00  0.00000000000E+00  0.40518808709E+01  0.40518840054E+01  0.50400000000E-02 0. -1.
          1   -1    0    0    0  501  0.00000000000E+00 -0.00000000000E+00 -0.25329948473E+03  0.25329948478E+03  0.50400000000E-02 0. -1.
          2    1    1    2    0  502 -0.22671427424E+02  0.17085577839E+02 -0.64990971353E+02  0.70920638431E+02  0.25500000000E-02 0. -1.
         -2    1    1    2  502    0  0.22671427424E+02 -0.17085577839E+02 -0.18425663250E+03  0.18643073035E+03  0.25500000000E-02 0. -1.
<mgrwt>
<rscale>  0 0.64073075E+02</rscale>
<asrwt>0</asrwt>
<pdfrwt beam="2">  1        1 0.38969140E-01 0.64073075E+02</pdfrwt>
<pdfrwt beam="1">  1       -1 0.62336673E-03 0.64073075E+02</pdfrwt>
<totfact> 0.31248273E+05</totfact>
</mgrwt>
</event>
<event>
 4    1  0.1893769E-002  0.4292659E+02  0.7818608E-02  0.1487717E+00
          1   -1    0    0    0  501  0.00000000000E+00  0.00000000000E+00  0.29545515621E+04  0.29545515621E+04  0.50400000000E-02 0.  1.
         -1   -1    0    0  501    0 -0.00000000000E+00 -0.00000000000E+00 -0.15587905694E+00  0.15596051421E+00  0.50400000000E-02 0.  1.
          2    1    1    2    0  502  0.20015020278E+02 -0.77392171586E+01  0.15061180459E+04  0.15062709135E+04  0.25500000000E-02 0.  1.
         -2    1    1    2  502    0 -0.20015020278E+02  0.77392171586E+01  0.14482776371E+04  0.14484366092E+04  0.25500000000E-02 0.  1.
<mgrwt>
<rscale>  0 0.42926591E+02</rscale>
<asrwt>0</asrwt>
<pdfrwt beam="1">  1        1 0.45454012E+00 0.42926591E+02</pdfrwt>
<pdfrwt beam="2">  1       -1 0.23987991E-04 0.42926591E+02</pdfrwt>
<totfact> 0.23353404E+05</totfact>
</mgrwt>
</event>
<event>
 4    1  0.1893769E-002  0.5774069E+02  0.7818608E-02  0.1407565E+00
          1   -1    0    0    0  501  0.00000000000E+00  0.00000000000E+00  0.71587292592E+03  0.71587292594E+03  0.50400000000E-02 0. -1.
         -1   -1    0    0  501    0 -0.00000000000E+00 -0.00000000000E+00 -0.11643027461E+01  0.11643136546E+01  0.50400000000E-02 0. -1.
          2    1    1    2    0  502  0.25721311781E+01 -0.27392483615E+02  0.24871592618E+03  0.25023304330E+03  0.25500000000E-02 0. -1.
         -2    1    1    2  502    0 -0.25721311781E+01  0.27392483615E+02  0.46599269699E+03  0.46680419629E+03  0.25500000000E-02 0. -1.
<mgrwt>
<rscale>  0 0.57740687E+02</rscale>
<asrwt>0</asrwt>
<pdfrwt beam="1">  1        1 0.11013433E+00 0.57740687E+02</pdfrwt>
<pdfrwt beam="2">  1       -1 0.17912428E-03 0.57740687E+02</pdfrwt>
<totfact> 0.46277416E+05</totfact>
</mgrwt>
</event>
<event>
 4    1  0.1893769E-002  0.4177642E+02  0.7818608E-02  0.1495531E+00
          1   -1    0    0    0  501  0.00000000000E+00  0.00000000000E+00  0.10566693325E+04  0.10566693325E+04  0.50400000000E-02 0. -1.
         -1   -1    0    0  501    0 -0.00000000000E+00 -0.00000000000E+00 -0.41290215214E+00  0.41293291083E+00  0.50400000000E-02 0. -1.
          2    1    1    2    0  502 -0.19973674707E+02  0.45858132282E+01  0.63041104254E+03  0.63074405263E+03  0.25500000000E-02 0.  1.
         -2    1    1    2  502    0  0.19973674707E+02 -0.45858132282E+01  0.42584538776E+03  0.42633821275E+03  0.25500000000E-02 0.  1.
<mgrwt>
<rscale>  0 0.41776419E+02</rscale>
<asrwt>0</asrwt>
<pdfrwt beam="1">  1        1 0.16256585E+00 0.41776419E+02</pdfrwt>
<pdfrwt beam="2">  1       -1 0.63525255E-04 0.41776419E+02</pdfrwt>
<totfact> 0.97147586E+05</totfact>
</mgrwt>
</event>
<event>
 4    1  0.1893769E-002  0.5662668E+02  0.7818608E-02  0.1412559E+00
         -1   -1    0    0  501    0 -0.00000000000E+00  0.00000000000E+00  0.42152789466E+02  0.42152789767E+02  0.50400000000E-02 0. -1.
          1   -1    0    0    0  501  0.00000000000E+00 -0.00000000000E+00 -0.19017606222E+02  0.19017606890E+02  0.50400000000E-02 0. -1.
          2    1    1    2    0  502 -0.11436227574E+02 -0.25618111393E+02  0.74442094513E+01  0.29025698843E+02  0.25500000000E-02 0.  1.
         -2    1    1    2  502    0  0.11436227574E+02  0.25618111393E+02  0.15690973792E+02  0.32144697814E+02  0.25500000000E-02 0.  1.
<mgrwt>
<rscale>  0 0.56626679E+02</rscale>
<asrwt>0</asrwt>
<pdfrwt beam="2">  1        1 0.29257856E-02 0.56626679E+02</pdfrwt>
<pdfrwt beam="1">  1       -1 0.64850446E-02 0.56626679E+02</pdfrwt>
<totfact> 0.30637669E+05</totfact>
</mgrwt>
</event>
<event>
 4    1  0.1893769E-002  0.4232329E+02  0.7818608E-02  0.1491779E+00
         -1   -1    0    0  501    0 -0.00000000000E+00  0.00000000000E+00  0.90484656995E+01  0.90484671032E+01  0.50400000000E-02 0.  1.
          1   -1    0    0    0  501  0.00000000000E+00 -0.00000000000E+00 -0.49490722085E+02  0.49490722342E+02  0.50400000000E-02 0.  1.
          2    1    1    2    0  502 -0.18411811311E+02 -0.82693468607E+01 -0.29016688178E+02  0.35346076057E+02  0.25500000000E-02 0.  1.
         -2    1    1    2  502    0  0.18411811311E+02  0.82693468607E+01 -0.11425568207E+02  0.23193113388E+02  0.25500000000E-02 0.  1.
<mgrwt>
<rscale>  0 0.42323287E+02</rscale>
<asrwt>0</asrwt>
<pdfrwt beam="2">  1        1 0.76139572E-02 0.42323287E+02</pdfrwt>
<pdfrwt beam="1">  1       -1 0.13920718E-02 0.42323287E+02</pdfrwt>
<totfact> 0.70954919E+05</totfact>
</mgrwt>
</event>
<event>
 4    1  0.1893769E-002  0.4506721E+02  0.7818608E-02  0.1473923E+00
          1   -1    0    0    0  501  0.00000000000E+00  0.00000000000E+00  0.73416948245E+01  0.73416965544E+01  0.50400000000E-02 0.  1.
         -1   -1    0    0  501    0 -0.00000000000E+00 -0.00000000000E+00 -0.69161584940E+02  0.69161585124E+02  0.50400000000E-02 0.  1.
          2    1    1    2    0  502  0.20216395843E+02  0.68687665730E+01 -0.43137013027E+02  0.48131949000E+02  0.25500000000E-02 0. -1.
         -2    1    1    2  502    0 -0.20216395843E+02 -0.68687665730E+01 -0.18682877089E+02  0.28371332678E+02  0.25500000000E-02 0. -1.
<mgrwt>
<rscale>  0 0.45067209E+02</rscale>
<asrwt>0</asrwt>
<pdfrwt beam="1">  1        1 0.11294917E-02 0.45067209E+02</pdfrwt>
<pdfrwt beam="2">  1       -1 0.10640244E-01 0.45067209E+02</pdfrwt>
<totfact> 0.50718045E+05</totfact>
</mgrwt>
</event>
<event>
 4    1  0.1893769E-002  0.1034988E+03  0.7818608E-02  0.1273106E+00
          1   -1    0    0    0  501  0.00000000000E+00  0.00000000000E+00  0.65631657266E+01  0.65631676618E+01  0.50400000000E-02 0.  1.
         -1   -1    0    0  501    0 -0.00000000000E+00 -0.00000000000E+00 -0.40803487906E+03  0.40803487909E+03  0.50400000000E-02 0.  1.
          2    1    1    2    0  502  0.45242409176E+02  0.17782798884E+02 -0.27182060627E+03  0.27613320251E+03  0.25500000000E-02 0. -1.
         -2    1    1    2  502    0 -0.45242409176E+02 -0.17782798884E+02 -0.12965110706E+03  0.13846484424E+03  0.25500000000E-02 0. -1.
<mgrwt>
<rscale>  0 0.10349881E+03</rscale>
<asrwt>0</asrwt>
<pdfrwt beam="1">  1        1 0.10097183E-02 0.10349881E+03</pdfrwt>
<pdfrwt beam="2">  1       -1 0.62774577E-01 0.10349881E+03</pdfrwt>
<totfact> 0.37783130E+04</totfact>
</mgrwt>
</event>
<event>
 4    1  0.1893769E-002  0.9413020E+02  0.7818608E-02  0.1293147E+00
          1   -1    0    0    0  501  0.00000000000E+00  0.00000000000E+00  0.67257489389E+02  0.67257489578E+02  0.50400000000E-02 0. -1.
         -1   -1    0    0  501    0 -0.00000000000E+00 -0.00000000000E+00 -0.32934972846E+02  0.32934973232E+02  0.50400000000E-02 0. -1.
          2    1    1    2    0  502 -0.16730700815E+01  0.34471540913E+02  0.51222773479E+02  0.61764543436E+02  0.25500000000E-02 0.  1.
         -2    1    1    2  502    0  0.16730700815E+01 -0.34471540913E+02 -0.16900256936E+02  0.38427919374E+02  0.25500000000E-02 0.  1.
<mgrwt>
<rscale>  0 0.94130200E+02</rscale>
<asrwt>0</asrwt>
<pdfrwt beam="1">  1        1 0.10347306E-01 0.94130200E+02</pdfrwt>
<pdfrwt beam="2">  1       -1 0.50669190E-02 0.94130200E+02</pdfrwt>
<totfact> 0.89772062E+04</totfact>
</mgrwt>
</event>
<event>
 4    1  0.1893769E-002  0.7456929E+02  0.7818608E-02  0.1345210E+00
         -1   -1    0    0  501    0 -0.00000000000E+00  0.00000000000E+00  0.11203307687E+03  0.11203307698E+03  0.50400000000E-02 0. -1.
          1   -1    0    0    0  501  0.00000000000E+00 -0.00000000000E+00 -0.12408341787E+02  0.12408342810E+02  0.50400000000E-02 0. -1.
          2    1    1    2    0  502 -0.21126585119E+02 -0.12631677219E+02  0.30783611829E+01  0.24806615694E+02  0.25500000000E-02 0. -1.
         -2    1    1    2  502    0  0.21126585119E+02  0.12631677219E+02  0.96546373897E+02  0.99634804096E+02  0.25500000000E-02 0. -1.
<mgrwt>
<rscale>  0 0.74569291E+02</rscale>
<asrwt>0</asrwt>
<pdfrwt beam="2">  1        1 0.19089757E-02 0.74569291E+02</pdfrwt>
<pdfrwt beam="1">  1       -1 0.17235859E-01 0.74569291E+02</pdfrwt>
<totfact> 0.13346085E+05</totfact>
</mgrwt>
</event>
<event>
 4    1  0.1893769E-002  0.7604998E+02  0.7818608E-02  0.1340650E+00
         -1   -1    0    0  501    0 -0.00000000000E+00  0.00000000000E+00  0.27195993316E+01  0.27196040017E+01  0.50400000000E-02 0. -1.
          1   -1    0    0    0  501  0.00000000000E+00 -0.00000000000E+00 -0.53165873272E+03  0.53165873274E+03  0.50400000000E-02 0. -1.
          2    1    1    2    0  502 -0.29436139406E+02  0.49707328680E+01 -0.98976061491E+02  0.10338014917E+03  0.25500000000E-02 0. -1.
         -2    1    1    2  502    0  0.29436139406E+02 -0.49707328680E+01 -0.42996307189E+03  0.43099818757E+03  0.25500000000E-02 0. -1.
<mgrwt>
<rscale>  0 0.76049983E+02</rscale>
<asrwt>0</asrwt>
<pdfrwt beam="2">  1        1 0.81793569E-01 0.76049983E+02</pdfrwt>
<pdfrwt beam="1">  1       -1 0.41840068E-03 0.76049983E+02</pdfrwt>
<totfact> 0.22571406E+05</totfact>
</mgrwt>
</event>
<event>
 4    1  0.1893769E-002  0.5790657E+02  0.7818608E-02  0.1406833E+00
         -1   -1    0    0  501    0 -0.00000000000E+00  0.00000000000E+00  0.45391022059E+00  0.45393820059E+00  0.50400000000E-02 0.  1.
          1   -1    0    0    0  501  0.00000000000E+00 -0.00000000000E+00 -0.18467681420E+04  0.18467681420E+04  0.50400000000E-02 0.  1.
          2    1    1    2    0  502  0.21967049124E+02 -0.59685007394E+01 -0.35240614636E+03  0.35314057576E+03  0.25500000000E-02 0. -1.
         -2    1    1    2  502    0 -0.21967049124E+02  0.59685007394E+01 -0.14939080854E+04  0.14940815045E+04  0.25500000000E-02 0. -1.
<mgrwt>
<rscale>  0 0.57906572E+02</rscale>
<asrwt>0</asrwt>
<pdfrwt beam="2">  1        1 0.28411216E+00 0.57906572E+02</pdfrwt>
<pdfrwt beam="1">  1       -1 0.69835973E-04 0.57906572E+02</pdfrwt>
<totfact> 0.28965320E+05</totfact>
</mgrwt>
</event>
<event>
 4    1  0.1893769E-002  0.6204967E+02  0.7818608E-02  0.1389426E+00
          1   -1    0    0    0  501  0.00000000000E+00  0.00000000000E+00  0.43584359227E+02  0.43584359518E+02  0.50400000000E-02 0. -1.
         -1   -1    0    0  501    0 -0.00000000000E+00 -0.00000000000E+00 -0.22084533537E+02  0.22084534113E+02  0.50400000000E-02 0. -1.
          2    1    1    2    0  502  0.20716187372E+02 -0.22530615113E+02  0.53793571455E+01  0.31076140789E+02  0.25500000000E-02 0.  1.
         -2    1    1    2  502    0 -0.20716187372E+02  0.22530615113E+02  0.16120468544E+02  0.34592752841E+02  0.25500000000E-02 0.  1.
<mgrwt>
<rscale>  0 0.62049666E+02</rscale>
<asrwt>0</asrwt>
<pdfrwt beam="1">  1        1 0.67052861E-02 0.62049666E+02</pdfrwt>
<pdfrwt beam="2">  1       -1 0.33976206E-02 0.62049666E+02</pdfrwt>
<totfact> 0.26228207E+05</totfact>
</mgrwt>
</event>
<event>
 4    1  0.1893769E-002  0.6697446E+02  0.7818608E-02  0.1370695E+00
          1   -1    0    0    0  501  0.00000000000E+00  0.00000000000E+00  0.10930486381E+02  0.10930487543E+02  0.50400000000E-02 0. -1.
         -1   -1    0    0  501    0 -0.00000000000E+00 -0.00000000000E+00 -0.10259327468E+03  0.10259327481E+03  0.50400000000E-02 0. -1.
          2    1    1    2    0  502  0.11870672505E+01 -0.32326244072E+02 -0.31152068492E+02  0.44909314872E+02  0.25500000000E-02 0. -1.
         -2    1    1    2  502    0 -0.11870672505E+01  0.32326244072E+02 -0.60510719811E+02  0.68614447480E+02  0.25500000000E-02 0. -1.
<mgrwt>
<rscale>  0 0.66974457E+02</rscale>
<asrwt>0</asrwt>
<pdfrwt beam="1">  1        1 0.16816135E-02 0.66974457E+02</pdfrwt>
<pdfrwt beam="2">  1       -1 0.15783580E-01 0.66974457E+02</pdfrwt>
<totfact> 0.17821235E+05</totfact>
</mgrwt>
</event>
<event>
 4    1  0.1893769E-002  0.8490941E+02  0.7818608E-02  0.1315670E+00
          1   -1    0    0    0  501  0.00000000000E+00  0.00000000000E+00  0.89296085592E+02  0.89296085734E+02  0.50400000000E-02 0.  1.
         -1   -1    0    0  501    0 -0.00000000000E+00 -0.00000000000E+00 -0.20184557375E+02  0.20184558004E+02  0.50400000000E-02 0.  1.
          2    1    1    2    0  502  0.13672203040E+02 -0.34321502032E+02  0.61525345025E+02  0.71765330938E+02  0.25500000000E-02 0.  1.
         -2    1    1    2  502    0 -0.13672203040E+02  0.34321502032E+02  0.75861831922E+01  0.37715312800E+02  0.25500000000E-02 0.  1.
<mgrwt>
<rscale>  0 0.84909411E+02</rscale>
<asrwt>0</asrwt>
<pdfrwt beam="1">  1        1 0.13737859E-01 0.84909411E+02</pdfrwt>
<pdfrwt beam="2">  1       -1 0.31053166E-02 0.84909411E+02</pdfrwt>
<totfact> 0.12444770E+05</totfact>
</mgrwt>
</event>
<event>
 4    1  0.1893769E-002  0.4176201E+02  0.7818608E-02  0.1495631E+00
         -1   -1    0    0  501    0 -0.00000000000E+00  0.00000000000E+00  0.39287324139E+01  0.39287356467E+01  0.50400000000E-02 0. -1.
          1   -1    0    0    0  501  0.00000000000E+00 -0.00000000000E+00 -0.11098138011E+03  0.11098138022E+03  0.50400000000E-02 0. -1.
          2    1    1    2    0  502 -0.11005444083E+01 -0.20842945211E+02 -0.51837384901E+02  0.55881607376E+02  0.25500000000E-02 0. -1.
         -2    1    1    2  502    0  0.11005444083E+01  0.20842945211E+02 -0.55215262791E+02  0.59028508491E+02  0.25500000000E-02 0. -1.
<mgrwt>
<rscale>  0 0.41762008E+02</rscale>
<asrwt>0</asrwt>
<pdfrwt beam="2">  1        1 0.17074056E-01 0.41762008E+02</pdfrwt>
<pdfrwt beam="1">  1       -1 0.60442071E-03 0.41762008E+02</pdfrwt>
<totfact> 0.80226089E+05</totfact>
</mgrwt>
</event>
<event>
 4    1  0.1893769E-002  0.6141821E+02  0.7818608E-02  0.1391975E+00
         -1   -1    0    0  501    0 -0.00000000000E+00  0.00000000000E+00  0.37707982988E+02  0.37707983325E+02  0.50400000000E-02 0.  1.
          1   -1    0    0    0  501  0.00000000000E+00 -0.00000000000E+00 -0.25009272507E+02  0.25009273015E+02  0.50400000000E-02 0.  1.
          2    1    1    2    0  502  0.24754067103E+02 -0.18125397794E+02  0.77022774661E+01  0.31632561831E+02  0.25500000000E-02 0. -1.
         -2    1    1    2  502    0 -0.24754067103E+02  0.18125397794E+02  0.49964330147E+01  0.31084694509E+02  0.25500000000E-02 0. -1.
<mgrwt>
<rscale>  0 0.61418214E+02</rscale>
<asrwt>0</asrwt>
<pdfrwt beam="2">  1        1 0.38475805E-02 0.61418214E+02</pdfrwt>
<pdfrwt beam="1">  1       -1 0.58012282E-02 0.61418214E+02</pdfrwt>
<totfact> 0.25373950E+05</totfact>
</mgrwt>
</event>
<event>
 4    1  0.1893769E-002  0.4324814E+02  0.7818608E-02  0.1485584E+00
         -1   -1    0    0  501    0 -0.00000000000E+00  0.00000000000E+00  0.22538745694E+00  0.22544380086E+00  0.50400000000E-02 0. -1.
          1   -1    0    0    0  501  0.00000000000E+00 -0.00000000000E+00 -0.20743918003E+04  0.20743918003E+04  0.50400000000E-02 0. -1.
          2    1    1    2    0  502 -0.19647195947E+02 -0.64529339863E+01 -0.13402742154E+04  0.13404337452E+04  0.25500000000E-02 0. -1.
         -2    1    1    2  502    0  0.19647195947E+02  0.64529339863E+01 -0.73389219737E+03  0.73418349888E+03  0.25500000000E-02 0. -1.
<mgrwt>
<rscale>  0 0.43248137E+02</rscale>
<asrwt>0</asrwt>
<pdfrwt beam="2">  1        1 0.31912192E+00 0.43248137E+02</pdfrwt>
<pdfrwt beam="1">  1       -1 0.34680989E-04 0.43248137E+02</pdfrwt>
<totfact> 0.51124134E+05</totfact>
</mgrwt>
</event>
<event>
 4    1  0.1893769E-002  0.9037385E+02  0.7818608E-02  0.1301949E+00
          1   -1    0    0    0  501  0.00000000000E+00  0.00000000000E+00  0.14196283449E+03  0.14196283458E+03  0.50400000000E-02 0.  1.
         -1   -1    0    0  501    0 -0.00000000000E+00 -0.00000000000E+00 -0.14383045499E+02  0.14383046382E+02  0.50400000000E-02 0.  1.
          2    1    1    2    0  502  0.38218871283E+01 -0.27775425134E+02  0.24843252295E+01  0.28146988133E+02  0.25500000000E-02 0.  1.
         -2    1    1    2  502    0 -0.38218871283E+01  0.27775425134E+02  0.12509546377E+03  0.12819889283E+03  0.25500000000E-02 0.  1.
<mgrwt>
<rscale>  0 0.90373845E+02</rscale>
<asrwt>0</asrwt>
<pdfrwt beam="1">  1        1 0.21840436E-01 0.90373845E+02</pdfrwt>
<pdfrwt beam="2">  1       -1 0.22127764E-02 0.90373845E+02</pdfrwt>
<totfact> 0.11369139E+05</totfact>
</mgrwt>
</event>
<event>
 4    1  0.1893769E-002  0.4056155E+03  0.7818608E-02  0.1041852E+00
         -1   -1    0    0  501    0 -0.00000000000E+00  0.00000000000E+00  0.10083331837E+03  0.10083331849E+03  0.50400000000E-02 0.  1.
          1   -1    0    0    0  501  0.00000000000E+00 -0.00000000000E+00 -0.40791062000E+03  0.40791062003E+03  0.50400000000E-02 0.  1.
          2    1    1    2    0  502  0.19277333246E+03 -0.10721537249E+02 -0.75669186946E+02  0.20737004347E+03  0.25500000000E-02 0.  1.
         -2    1    1    2  502    0 -0.19277333246E+03  0.10721537249E+02 -0.23140811469E+03  0.30137389506E+03  0.25500000000E-02 0.  1.
<mgrwt>
<rscale>  0 0.40561549E+03</rscale>
<asrwt>0</asrwt>
<pdfrwt beam="2">  1        1 0.62755479E-01 0.40561549E+03</pdfrwt>
<pdfrwt beam="1">  1       -1 0.15512818E-01 0.40561549E+03</pdfrwt>
<totfact> 0.18070023E+03</totfact>
</mgrwt>
</event>
<event>
 4    1  0.1893769E-002  0.4319622E+02  0.7818608E-02  0.1485927E+00
         -1   -1    0    0  501    0 -0.00000000000E+00  0.00000000000E+00  0.13793229560E+01  0.13793321639E+01  0.50400000000E-02 0. -1.
          1   -1    0    0    0  501  0.00000000000E+00 -0.00000000000E+00 -0.33819265494E+03  0.33819265498E+03  0.50400000000E-02 0. -1.
          2    1    1    2    0  502  0.18953606078E+02 -0.10324633139E+02 -0.16211174058E+03  0.16354220762E+03  0.25500000000E-02 0. -1.
         -2    1    1    2  502    0 -0.18953606078E+02  0.10324633139E+02 -0.17470159141E+03  0.17602977953E+03  0.25500000000E-02 0. -1.
<mgrwt>
<rscale>  0 0.43196225E+02</rscale>
<asrwt>0</asrwt>
<pdfrwt beam="2">  1        1 0.52029574E-01 0.43196225E+02</pdfrwt>
<pdfrwt beam="1">  1       -1 0.21220451E-03 0.43196225E+02</pdfrwt>
<totfact> 0.88404130E+05</totfact>
</mgrwt>
</event>
<event>
 4    1  0.1893769E-002  0.6063686E+02  0.7818608E-02  0.1395178E+00
         -1   -1    0    0  501    0 -0.00000000000E+00  0.00000000000E+00  0.31159412081E+02  0.31159412489E+02  0.50400000000E-02 0. -1.
          1   -1    0    0    0  501  0.00000000000E+00 -0.00000000000E+00 -0.29500149488E+02  0.29500149918E+02  0.50400000000E-02 0. -1.
          2    1    1    2    0  502 -0.57428166710E+01 -0.22483816104E+02  0.20348608463E+02  0.30863697167E+02  0.25500000000E-02 0.  1.
         -2    1    1    2  502    0  0.57428166710E+01  0.22483816104E+02 -0.18689345870E+02  0.29795865241E+02  0.25500000000E-02 0.  1.
<mgrwt>
<rscale>  0 0.60636865E+02</rscale>
<asrwt>0</asrwt>
<pdfrwt beam="2">  1        1 0.45384846E-02 0.60636865E+02</pdfrwt>
<pdfrwt beam="1">  1       -1 0.47937558E-02 0.60636865E+02</pdfrwt>
<totfact> 0.26734544E+05</totfact>
</mgrwt>
</event>
<event>
 4    1  0.1893769E-002  0.4458949E+02  0.7818608E-02  0.1476921E+00
          1   -1    0    0    0  501  0.00000000000E+00  0.00000000000E+00  0.15196922542E+03  0.15196922550E+03  0.50400000000E-02 0.  1.
         -1   -1    0    0  501    0 -0.00000000000E+00 -0.00000000000E+00 -0.32707630343E+01  0.32707669174E+01  0.50400000000E-02 0.  1.
          2    1    1    2    0  502  0.14559419825E+02  0.15693935996E+02  0.96029819568E+02  0.98387004149E+02  0.25500000000E-02 0. -1.
         -2    1    1    2  502    0 -0.14559419825E+02 -0.15693935996E+02  0.52668642819E+02  0.56852988273E+02  0.25500000000E-02 0. -1.
<mgrwt>
<rscale>  0 0.44589489E+02</rscale>
<asrwt>0</asrwt>
<pdfrwt beam="1">  1        1 0.23379871E-01 0.44589489E+02</pdfrwt>
<pdfrwt beam="2">  1       -1 0.50319484E-03 0.44589489E+02</pdfrwt>
<totfact> 0.71441723E+05</totfact>
</mgrwt>
</event>
<event>
 4    1  0.1893769E-002  0.4578465E+02  0.7818608E-02  0.1469502E+00
         -1   -1    0    0  501    0 -0.00000000000E+00  0.00000000000E+00  0.35976186599E+01  0.35976221903E+01  0.50400000000E-02 0. -1.
          1   -1    0    0    0  501  0.00000000000E+00 -0.00000000000E+00 -0.14566807740E+03  0.14566807749E+03  0.50400000000E-02 0. -1.
          2    1    1    2    0  502  0.19053981434E+02  0.10592098047E+02 -0.48257933910E+02  0.52953516798E+02  0.25500000000E-02 0. -1.
         -2    1    1    2  502    0 -0.19053981434E+02 -0.10592098047E+02 -0.93812524835E+02  0.96312182884E+02  0.25500000000E-02 0. -1.
<mgrwt>
<rscale>  0 0.45784646E+02</rscale>
<asrwt>0</asrwt>
<pdfrwt beam="2">  1        1 0.22410469E-01 0.45784646E+02</pdfrwt>
<pdfrwt beam="1">  1       -1 0.55348018E-03 0.45784646E+02</pdfrwt>
<totfact> 0.66463822E+05</totfact>
</mgrwt>
</event>
<event>
 4    1  0.1893769E-002  0.5063715E+02  0.7818608E-02  0.1441935E+00
         -1   -1    0    0  501    0 -0.00000000000E+00  0.00000000000E+00  0.43018717694E+03  0.43018717697E+03  0.50400000000E-02 0. -1.
          1   -1    0    0    0  501  0.00000000000E+00 -0.00000000000E+00 -0.14901152907E+01  0.14901238140E+01  0.50400000000E-02 0. -1.
          2    1    1    2    0  502 -0.11751540462E+01  0.21620052102E+02  0.32622406176E+03  0.32694180845E+03  0.25500000000E-02 0.  1.
         -2    1    1    2  502    0  0.11751540462E+01 -0.21620052102E+02  0.10247299989E+03  0.10473549233E+03  0.25500000000E-02 0.  1.
<mgrwt>
<rscale>  0 0.50637154E+02</rscale>
<asrwt>0</asrwt>
<pdfrwt beam="2">  1        1 0.22924894E-03 0.50637154E+02</pdfrwt>
<pdfrwt beam="1">  1       -1 0.66182707E-01 0.50637154E+02</pdfrwt>
<totfact> 0.23048905E+05</totfact>
</mgrwt>
</event>
<event>
 4    1  0.1893769E-002  0.1507669E+03  0.7818608E-02  0.1199534E+00
         -1   -1    0    0  501    0 -0.00000000000E+00  0.00000000000E+00  0.61732136290E+01  0.61732156864E+01  0.50400000000E-02 0. -1.
          1   -1    0    0    0  501  0.00000000000E+00 -0.00000000000E+00 -0.92053617760E+03  0.92053617761E+03  0.50400000000E-02 0. -1.
          2    1    1    2    0  502 -0.41948806460E+02  0.47761746004E+02 -0.20812662239E+03  0.21761796272E+03  0.25500000000E-02 0.  1.
         -2    1    1    2  502    0  0.41948806460E+02 -0.47761746004E+02 -0.70623634159E+03  0.70909143058E+03  0.25500000000E-02 0.  1.
<mgrwt>
<rscale>  0 0.15076694E+03</rscale>
<asrwt>0</asrwt>
<pdfrwt beam="2">  1        1 0.14162084E+00 0.15076694E+03</pdfrwt>
<pdfrwt beam="1">  1       -1 0.94972606E-03 0.15076694E+03</pdfrwt>
<totfact> 0.35541645E+04</totfact>
</mgrwt>
</event>
<event>
 4    1  0.1893769E-002  0.7562278E+02  0.7818608E-02  0.1341953E+00
         -1   -1    0    0  501    0 -0.00000000000E+00  0.00000000000E+00  0.81913158551E+00  0.81914709056E+00  0.50400000000E-02 0. -1.
          1   -1    0    0    0  501  0.00000000000E+00 -0.00000000000E+00 -0.17453699807E+04  0.17453699807E+04  0.50400000000E-02 0. -1.
          2    1    1    2    0  502  0.26638946968E+02 -0.18368911018E+02 -0.42058595139E+03  0.42182886684E+03  0.25500000000E-02 0.  1.
         -2    1    1    2  502    0 -0.26638946968E+02  0.18368911018E+02 -0.13239648977E+04  0.13243602609E+04  0.25500000000E-02 0.  1.
<mgrwt>
<rscale>  0 0.75622780E+02</rscale>
<asrwt>0</asrwt>
<pdfrwt beam="2">  1        1 0.26851548E+00 0.75622780E+02</pdfrwt>
<pdfrwt beam="1">  1       -1 0.12602283E-03 0.75622780E+02</pdfrwt>
<totfact> 0.15593626E+05</totfact>
</mgrwt>
</event>
<event>
 4    1  0.1893769E-002  0.6103570E+02  0.7818608E-02  0.1393536E+00
          1   -1    0    0    0  501  0.00000000000E+00  0.00000000000E+00  0.96344617817E+03  0.96344617819E+03  0.50400000000E-02 0.  1.
         -1   -1    0    0  501    0 -0.00000000000E+00 -0.00000000000E+00 -0.96666808753E+00  0.96668122618E+00  0.50400000000E-02 0.  1.
          2    1    1    2    0  502 -0.13363396514E+02 -0.15809810857E+02  0.12693219907E+03  0.12860915073E+03  0.25500000000E-02 0. -1.
         -2    1    1    2  502    0  0.13363396514E+02  0.15809810857E+02  0.83554731102E+03  0.83580370868E+03  0.25500000000E-02 0. -1.
<mgrwt>
<rscale>  0 0.61035695E+02</rscale>
<asrwt>0</asrwt>
<pdfrwt beam="1">  1        1 0.14822256E+00 0.61035695E+02</pdfrwt>
<pdfrwt beam="2">  1       -1 0.14871911E-03 0.61035695E+02</pdfrwt>
<totfact> 0.38832159E+05</totfact>
</mgrwt>
</event>
<event>
 4    1  0.1893769E-002  0.5972959E+02  0.7818608E-02  0.1398970E+00
         -1   -1    0    0  501    0 -0.00000000000E+00  0.00000000000E+00  0.47173424123E+03  0.47173424126E+03  0.50400000000E-02 0.  1.
          1   -1    0    0    0  501  0.00000000000E+00 -0.00000000000E+00 -0.18906927840E+01  0.18906995015E+01  0.50400000000E-02 0.  1.
          2    1    1    2    0  502  0.19268649690E+02  0.17399301115E+02  0.11787398295E+03  0.12069918145E+03  0.25500000000E-02 0.  1.
         -2    1    1    2  502    0 -0.19268649690E+02 -0.17399301115E+02  0.35196956549E+03  0.35292575931E+03  0.25500000000E-02 0.  1.
<mgrwt>
<rscale>  0 0.59729595E+02</rscale>
<asrwt>0</asrwt>
<pdfrwt beam="2">  1        1 0.29087638E-03 0.59729595E+02</pdfrwt>
<pdfrwt beam="1">  1       -1 0.72574487E-01 0.59729595E+02</pdfrwt>
<totfact> 0.14479583E+05</totfact>
</mgrwt>
</event>
<event>
 4    1  0.1893769E-002  0.2070577E+03  0.7818608E-02  0.1143917E+00
         -1   -1    0    0  501    0 -0.00000000000E+00  0.00000000000E+00  0.28170107111E+02  0.28170107562E+02  0.50400000000E-02 0.  1.
          1   -1    0    0    0  501  0.00000000000E+00 -0.00000000000E+00 -0.38048202149E+03  0.38048202153E+03  0.50400000000E-02 0.  1.
          2    1    1    2    0  502 -0.87448690044E+02  0.48365966830E+02 -0.12277051804E+03  0.15830079041E+03  0.25500000000E-02 0. -1.
         -2    1    1    2  502    0  0.87448690044E+02 -0.48365966830E+02 -0.22954139634E+03  0.25035133868E+03  0.25500000000E-02 0. -1.
<mgrwt>
<rscale>  0 0.20705767E+03</rscale>
<asrwt>0</asrwt>
<pdfrwt beam="2">  1        1 0.58535692E-01 0.20705767E+03</pdfrwt>
<pdfrwt beam="1">  1       -1 0.43338629E-02 0.20705767E+03</pdfrwt>
<totfact> 0.13737591E+04</totfact>
</mgrwt>
</event>
<event>
 4    1  0.1893769E-002  0.9304032E+02  0.7818608E-02  0.1295652E+00
         -1   -1    0    0  501    0 -0.00000000000E+00  0.00000000000E+00  0.17225130240E+02  0.17225130977E+02  0.50400000000E-02 0.  1.
          1   -1    0    0    0  501  0.00000000000E+00 -0.00000000000E+00 -0.12563767319E+03  0.12563767329E+03  0.50400000000E-02 0.  1.
          2    1    1    2    0  502  0.17059894545E+02  0.43166296288E+02 -0.59002372417E+02  0.75070960394E+02  0.25500000000E-02 0.  1.
         -2    1    1    2  502    0 -0.17059894545E+02 -0.43166296288E+02 -0.49410170533E+02  0.67791843873E+02  0.25500000000E-02 0.  1.
<mgrwt>
<rscale>  0 0.93040321E+02</rscale>
<asrwt>0</asrwt>
<pdfrwt beam="2">  1        1 0.19328872E-01 0.93040321E+02</pdfrwt>
<pdfrwt beam="1">  1       -1 0.26500202E-02 0.93040321E+02</pdfrwt>
<totfact> 0.10280429E+05</totfact>
</mgrwt>
</event>
<event>
 4    1  0.1893769E-002  0.4527433E+02  0.7818608E-02  0.1472636E+00
         -1   -1    0    0  501    0 -0.00000000000E+00  0.00000000000E+00  0.15291328859E+01  0.15291411918E+01  0.50400000000E-02 0. -1.
          1   -1    0    0    0  501  0.00000000000E+00 -0.00000000000E+00 -0.33511796994E+03  0.33511796997E+03  0.50400000000E-02 0. -1.
          2    1    1    2    0  502  0.21174824896E+02 -0.41244391371E+01 -0.11578675822E+03  0.11777927489E+03  0.25500000000E-02 0.  1.
         -2    1    1    2  502    0 -0.21174824896E+02  0.41244391371E+01 -0.21780207883E+03  0.21886783628E+03  0.25500000000E-02 0.  1.
<mgrwt>
<rscale>  0 0.45274333E+02</rscale>
<asrwt>0</asrwt>
<pdfrwt beam="2">  1        1 0.51556553E-01 0.45274333E+02</pdfrwt>
<pdfrwt beam="1">  1       -1 0.23525212E-03 0.45274333E+02</pdfrwt>
<totfact> 0.78657755E+05</totfact>
</mgrwt>
</event>
<event>
 4    1  0.1893769E-002  0.4542974E+02  0.7818608E-02  0.1471677E+00
          1   -1    0    0    0  501  0.00000000000E+00  0.00000000000E+00  0.69636523689E+01  0.69636541927E+01  0.50400000000E-02 0.  1.
         -1   -1    0    0  501    0 -0.00000000000E+00 -0.00000000000E+00 -0.74094047395E+02  0.74094047567E+02  0.50400000000E-02 0.  1.
          2    1    1    2    0  502 -0.20232092191E+02  0.75386012420E+01 -0.46156090044E+02  0.50956380541E+02  0.25500000000E-02 0.  1.
         -2    1    1    2  502    0  0.20232092191E+02 -0.75386012420E+01 -0.20974304982E+02  0.30101321219E+02  0.25500000000E-02 0.  1.
<mgrwt>
<rscale>  0 0.45429738E+02</rscale>
<asrwt>0</asrwt>
<pdfrwt beam="1">  1        1 0.10713313E-02 0.45429738E+02</pdfrwt>
<pdfrwt beam="2">  1       -1 0.11399084E-01 0.45429738E+02</pdfrwt>
<totfact> 0.49282612E+05</totfact>
</mgrwt>
</event>
<event>
 4    1  0.1893769E-002  0.4034569E+02  0.7818608E-02  0.1505683E+00
         -1   -1    0    0  501    0 -0.00000000000E+00  0.00000000000E+00  0.12347332307E+03  0.12347332317E+03  0.50400000000E-02 0.  1.
          1   -1    0    0    0  501  0.00000000000E+00 -0.00000000000E+00 -0.32958011325E+01  0.32958049861E+01  0.50400000000E-02 0.  1.
          2    1    1    2    0  502 -0.18700712441E+02  0.71113433228E+01  0.51982508742E+02  0.55699812130E+02  0.25500000000E-02 0.  1.
         -2    1    1    2  502    0  0.18700712441E+02 -0.71113433228E+01  0.68195013192E+02  0.71069316026E+02  0.25500000000E-02 0.  1.
<mgrwt>
<rscale>  0 0.40345695E+02</rscale>
<asrwt>0</asrwt>
<pdfrwt beam="2">  1        1 0.50704668E-03 0.40345695E+02</pdfrwt>
<pdfrwt beam="1">  1       -1 0.18995894E-01 0.40345695E+02</pdfrwt>
<totfact> 0.60607535E+05</totfact>
</mgrwt>
</event>
<event>
 4    1  0.1893769E-002  0.5833839E+02  0.7818608E-02  0.1404940E+00
          1   -1    0    0    0  501  0.00000000000E+00  0.00000000000E+00  0.21060494012E+04  0.21060494012E+04  0.50400000000E-02 0.  1.
         -1   -1    0    0  501    0 -0.00000000000E+00 -0.00000000000E+00 -0.40398336414E+00  0.40401480183E+00  0.50400000000E-02 0.  1.
          2    1    1    2    0  502 -0.26745767720E+02  0.79973577093E+01  0.13582422254E+04  0.13585290710E+04  0.25500000000E-02 0. -1.
         -2    1    1    2  502    0  0.26745767720E+02 -0.79973577093E+01  0.74740319238E+03  0.74792434497E+03  0.25500000000E-02 0. -1.
<mgrwt>
<rscale>  0 0.58338394E+02</rscale>
<asrwt>0</asrwt>
<pdfrwt beam="1">  1        1 0.32400863E+00 0.58338394E+02</pdfrwt>
<pdfrwt beam="2">  1       -1 0.62153509E-04 0.58338394E+02</pdfrwt>
<totfact> 0.23506149E+05</totfact>
</mgrwt>
</event>
<event>
 4    1  0.1893769E-002  0.5087309E+02  0.7818608E-02  0.1440688E+00
         -1   -1    0    0  501    0 -0.00000000000E+00  0.00000000000E+00  0.14955209585E+01  0.14955294510E+01  0.50400000000E-02 0.  1.
          1   -1    0    0    0  501  0.00000000000E+00 -0.00000000000E+00 -0.43263590544E+03  0.43263590547E+03  0.50400000000E-02 0.  1.
          2    1    1    2    0  502  0.11368455514E+02  0.22676639953E+02 -0.23163998321E+03  0.23302479183E+03  0.25500000000E-02 0. -1.
         -2    1    1    2  502    0 -0.11368455514E+02 -0.22676639953E+02 -0.19950040127E+03  0.20110664309E+03  0.25500000000E-02 0. -1.
<mgrwt>
<rscale>  0 0.50873094E+02</rscale>
<asrwt>0</asrwt>
<pdfrwt beam="2">  1        1 0.66559271E-01 0.50873094E+02</pdfrwt>
<pdfrwt beam="1">  1       -1 0.23008115E-03 0.50873094E+02</pdfrwt>
<totfact> 0.61304107E+05</totfact>
</mgrwt>
</event>
<event>
 4    1  0.1893769E-002  0.7039264E+02  0.7818608E-02  0.1358763E+00
         -1   -1    0    0  501    0 -0.00000000000E+00  0.00000000000E+00  0.42729028679E+01  0.42729058403E+01  0.50400000000E-02 0. -1.
          1   -1    0    0    0  501  0.00000000000E+00 -0.00000000000E+00 -0.28991542152E+03  0.28991542157E+03  0.50400000000E-02 0. -1.
          2    1    1    2    0  502  0.26177632732E+02 -0.46836834680E+01 -0.23917768552E+03  0.24065155433E+03  0.25500000000E-02 0.  1.
         -2    1    1    2  502    0 -0.26177632732E+02  0.46836834680E+01 -0.46464833134E+02  0.53536773072E+02  0.25500000000E-02 0.  1.
<mgrwt>
<rscale>  0 0.70392638E+02</rscale>
<asrwt>0</asrwt>
<pdfrwt beam="2">  1        1 0.44602357E-01 0.70392638E+02</pdfrwt>
<pdfrwt beam="1">  1       -1 0.65737013E-03 0.70392638E+02</pdfrwt>
<totfact> 0.25128727E+05</totfact>
</mgrwt>
</event>
<event>
 4    1  0.1893769E-002  0.5313891E+02  0.7818608E-02  0.1429111E+00
          1   -1    0    0    0  501  0.00000000000E+00  0.00000000000E+00  0.20766080283E+03  0.20766080289E+03  0.50400000000E-02 0. -1.
         -1   -1    0    0  501    0 -0.00000000000E+00 -0.00000000000E+00 -0.33994647505E+01  0.33994684866E+01  0.50400000000E-02 0. -1.
          2    1    1    2    0  502  0.18025745744E+01 -0.26327868583E+02  0.11439209751E+03  0.11739658393E+03  0.25500000000E-02 0.  1.
         -2    1    1    2  502    0 -0.18025745744E+01  0.26327868583E+02  0.89869240570E+02  0.93663687448E+02  0.25500000000E-02 0.  1.
<mgrwt>
<rscale>  0 0.53138912E+02</rscale>
<asrwt>0</asrwt>
<pdfrwt beam="1">  1        1 0.31947822E-01 0.53138912E+02</pdfrwt>
<pdfrwt beam="2">  1       -1 0.52299478E-03 0.53138912E+02</pdfrwt>
<totfact> 0.48551252E+05</totfact>
</mgrwt>
</event>
<event>
 4    1  0.1893769E-002  0.6141567E+02  0.7818608E-02  0.1391985E+00
          1   -1    0    0    0  501  0.00000000000E+00  0.00000000000E+00  0.21207581897E+03  0.21207581903E+03  0.50400000000E-02 0. -1.
         -1   -1    0    0  501    0 -0.00000000000E+00 -0.00000000000E+00 -0.44463855211E+01  0.44463883775E+01  0.50400000000E-02 0. -1.
          2    1    1    2    0  502  0.82323013725E+00 -0.22905850191E+02  0.31768440721E+02  0.39173837100E+02  0.25500000000E-02 0. -1.
         -2    1    1    2  502    0 -0.82323013725E+00  0.22905850191E+02  0.17586099273E+03  0.17734837031E+03  0.25500000000E-02 0. -1.
<mgrwt>
<rscale>  0 0.61415671E+02</rscale>
<asrwt>0</asrwt>
<pdfrwt beam="1">  1        1 0.32627045E-01 0.61415671E+02</pdfrwt>
<pdfrwt beam="2">  1       -1 0.68405963E-03 0.61415671E+02</pdfrwt>
<totfact> 0.33730531E+05</totfact>
</mgrwt>
</event>
<event>
 4    1  0.1893769E-002  0.5165860E+02  0.7818608E-02  0.1436595E+00
         -1   -1    0    0  501    0 -0.00000000000E+00  0.00000000000E+00  0.53398555939E+00  0.53400934378E+00  0.50400000000E-02 0. -1.
          1   -1    0    0    0  501  0.00000000000E+00 -0.00000000000E+00 -0.12493556106E+04  0.12493556106E+04  0.50400000000E-02 0. -1.
          2    1    1    2    0  502  0.12095418082E+02 -0.22822149022E+02 -0.62575660096E+03  0.62628944848E+03  0.25500000000E-02 0. -1.
         -2    1    1    2  502    0 -0.12095418082E+02  0.22822149022E+02 -0.62306502406E+03  0.62360017145E+03  0.25500000000E-02 0. -1.
<mgrwt>
<rscale>  0 0.51658599E+02</rscale>
<asrwt>0</asrwt>
<pdfrwt beam="2">  1        1 0.19220622E+00 0.51658599E+02</pdfrwt>
<pdfrwt beam="1">  1       -1 0.82154455E-04 0.51658599E+02</pdfrwt>
<totfact> 0.53759579E+05</totfact>
</mgrwt>
</event>
<event>
 4    1  0.1893769E-002  0.8254978E+02  0.7818608E-02  0.1321967E+00
          1   -1    0    0    0  501  0.00000000000E+00  0.00000000000E+00  0.14520303869E+04  0.14520303869E+04  0.50400000000E-02 0. -1.
         -1   -1    0    0  501    0 -0.00000000000E+00 -0.00000000000E+00 -0.11732595645E+01  0.11732703897E+01  0.50400000000E-02 0. -1.
          2    1    1    2    0  502  0.35539090437E+02  0.89728534285E+01  0.39138086420E+03  0.39309352566E+03  0.25500000000E-02 0. -1.
         -2    1    1    2  502    0 -0.35539090437E+02 -0.89728534285E+01  0.10594762632E+04  0.10601101317E+04  0.25500000000E-02 0. -1.
<mgrwt>
<rscale>  0 0.82549777E+02</rscale>
<asrwt>0</asrwt>
<pdfrwt beam="1">  1        1 0.22338914E+00 0.82549777E+02</pdfrwt>
<pdfrwt beam="2">  1       -1 0.18050243E-03 0.82549777E+02</pdfrwt>
<totfact> 0.14733632E+05</totfact>
</mgrwt>
</event>
<event>
 4    1  0.1893769E-002  0.5028043E+02  0.7818608E-02  0.1443835E+00
          1   -1    0    0    0  501  0.00000000000E+00  0.00000000000E+00  0.15224914955E+04  0.15224914955E+04  0.50400000000E-02 0. -1.
         -1   -1    0    0  501    0 -0.00000000000E+00 -0.00000000000E+00 -0.41511377933E+00  0.41514437416E+00  0.50400000000E-02 0. -1.
          2    1    1    2    0  502 -0.12278269351E+02  0.21094251533E+02  0.57853505134E+03  0.57904967747E+03  0.25500000000E-02 0. -1.
         -2    1    1    2  502    0  0.12278269351E+02 -0.21094251533E+02  0.94354133038E+03  0.94385696241E+03  0.25500000000E-02 0. -1.
<mgrwt>
<rscale>  0 0.50280434E+02</rscale>
<asrwt>0</asrwt>
<pdfrwt beam="1">  1        1 0.23423403E+00 0.50280434E+02</pdfrwt>
<pdfrwt beam="2">  1       -1 0.63864767E-04 0.50280434E+02</pdfrwt>
<totfact> 0.50451528E+05</totfact>
</mgrwt>
</event>
<event>
 4    1  0.1893769E-002  0.4438441E+02  0.7818608E-02  0.1478222E+00
         -1   -1    0    0  501    0 -0.00000000000E+00  0.00000000000E+00  0.15165071788E+01  0.15165155538E+01  0.50400000000E-02 0.  1.
          1   -1    0    0    0  501  0.00000000000E+00 -0.00000000000E+00 -0.32475460173E+03  0.32475460177E+03  0.50400000000E-02 0.  1.
          2    1    1    2    0  502  0.92286645913E+00 -0.21881945971E+02 -0.13529578418E+03  0.13705699714E+03  0.25500000000E-02 0.  1.
         -2    1    1    2  502    0 -0.92286645913E+00  0.21881945971E+02 -0.18794231038E+03  0.18921412019E+03  0.25500000000E-02 0.  1.
<mgrwt>
<rscale>  0 0.44384414E+02</rscale>
<asrwt>0</asrwt>
<pdfrwt beam="2">  1        1 0.49962192E-01 0.44384414E+02</pdfrwt>
<pdfrwt beam="1">  1       -1 0.23330970E-03 0.44384414E+02</pdfrwt>
<totfact> 0.82162233E+05</totfact>
</mgrwt>
</event>
<event>
 4    1  0.1893769E-002  0.6262111E+02  0.7818608E-02  0.1387150E+00
          1   -1    0    0    0  501  0.00000000000E+00  0.00000000000E+00  0.24301286684E+03  0.24301286689E+03  0.50400000000E-02 0.  1.
         -1   -1    0    0  501    0 -0.00000000000E+00 -0.00000000000E+00 -0.40341500917E+01  0.40341532401E+01  0.50400000000E-02 0.  1.
          2    1    1    2    0  502 -0.29851449166E+02 -0.83241156636E+01  0.10186799257E+03  0.10647764008E+03  0.25500000000E-02 0.  1.
         -2    1    1    2  502    0  0.29851449166E+02  0.83241156636E+01  0.13711072417E+03  0.14056938005E+03  0.25500000000E-02 0.  1.
<mgrwt>
<rscale>  0 0.62621107E+02</rscale>
<asrwt>0</asrwt>
<pdfrwt beam="1">  1        1 0.37386590E-01 0.62621107E+02</pdfrwt>
<pdfrwt beam="2">  1       -1 0.62063881E-03 0.62621107E+02</pdfrwt>
<totfact> 0.32893804E+05</totfact>
</mgrwt>
</event>
<event>
 4    1  0.1893769E-002  0.4788140E+02  0.7818608E-02  0.1457116E+00
          1   -1    0    0    0  501  0.00000000000E+00  0.00000000000E+00  0.22996125966E+03  0.22996125972E+03  0.50400000000E-02 0.  1.
         -1   -1    0    0  501    0 -0.00000000000E+00 -0.00000000000E+00 -0.24924044969E+01  0.24924095927E+01  0.50400000000E-02 0.  1.
          2    1    1    2    0  502  0.18592304284E+02  0.15047688657E+02  0.10875891157E+03  0.11135801527E+03  0.25500000000E-02 0.  1.
         -2    1    1    2  502    0 -0.18592304284E+02 -0.15047688657E+02  0.11870994360E+03  0.12109565404E+03  0.25500000000E-02 0.  1.
<mgrwt>
<rscale>  0 0.47881398E+02</rscale>
<asrwt>0</asrwt>
<pdfrwt beam="1">  1        1 0.35378658E-01 0.47881398E+02</pdfrwt>
<pdfrwt beam="2">  1       -1 0.38344722E-03 0.47881398E+02</pdfrwt>
<totfact> 0.64157352E+05</totfact>
</mgrwt>
</event>
<event>
 4    1  0.1893769E-002  0.7131883E+02  0.7818608E-02  0.1355665E+00
          1   -1    0    0    0  501  0.00000000000E+00  0.00000000000E+00  0.10137562653E+04  0.10137562653E+04  0.50400000000E-02 0. -1.
         -1   -1    0    0  501    0 -0.00000000000E+00 -0.00000000000E+00 -0.12543339320E+01  0.12543440575E+01  0.50400000000E-02 0. -1.
          2    1    1    2    0  502  0.21779910734E+02  0.50327852979E+01  0.11084152845E+03  0.11307315276E+03  0.25500000000E-02 0. -1.
         -2    1    1    2  502    0 -0.21779910734E+02 -0.50327852979E+01  0.90166040294E+03  0.90193745663E+03  0.25500000000E-02 0. -1.
<mgrwt>
<rscale>  0 0.71318834E+02</rscale>
<asrwt>0</asrwt>
<pdfrwt beam="1">  1        1 0.15596198E+00 0.71318834E+02</pdfrwt>
<pdfrwt beam="2">  1       -1 0.19297588E-03 0.71318834E+02</pdfrwt>
<totfact> 0.25739877E+05</totfact>
</mgrwt>
</event>
<event>
 4    1  0.1893769E-002  0.5396400E+02  0.7818608E-02  0.1425063E+00
         -1   -1    0    0  501    0 -0.00000000000E+00  0.00000000000E+00  0.82679433449E+00  0.82680969585E+00  0.50400000000E-02 0. -1.
          1   -1    0    0    0  501  0.00000000000E+00 -0.00000000000E+00 -0.88053520320E+03  0.88053520321E+03  0.50400000000E-02 0. -1.
          2    1    1    2    0  502 -0.92222886188E+01 -0.24871647588E+02 -0.35921307654E+03  0.36019117677E+03  0.25500000000E-02 0. -1.
         -2    1    1    2  502    0  0.92222886188E+01  0.24871647588E+02 -0.52049533233E+03  0.52117083614E+03  0.25500000000E-02 0. -1.
<mgrwt>
<rscale>  0 0.53963999E+02</rscale>
<asrwt>0</asrwt>
<pdfrwt beam="2">  1        1 0.13546620E+00 0.53963999E+02</pdfrwt>
<pdfrwt beam="1">  1       -1 0.12720102E-03 0.53963999E+02</pdfrwt>
<totfact> 0.53878677E+05</totfact>
</mgrwt>
</event>
<event>
 4    1  0.1893769E-002  0.4251700E+02  0.7818608E-02  0.1490466E+00
         -1   -1    0    0  501    0 -0.00000000000E+00  0.00000000000E+00  0.41059336326E+01  0.41059367259E+01  0.50400000000E-02 0. -1.
          1   -1    0    0    0  501  0.00000000000E+00 -0.00000000000E+00 -0.11006598704E+03  0.11006598715E+03  0.50400000000E-02 0. -1.
          2    1    1    2    0  502 -0.12767102772E+02  0.16874190244E+02 -0.47485532698E+02  0.51986662055E+02  0.25500000000E-02 0.  1.
         -2    1    1    2  502    0  0.12767102772E+02 -0.16874190244E+02 -0.58474520705E+02  0.62185261821E+02  0.25500000000E-02 0.  1.
<mgrwt>
<rscale>  0 0.42517000E+02</rscale>
<asrwt>0</asrwt>
<pdfrwt beam="2">  1        1 0.16933227E-01 0.42517000E+02</pdfrwt>
<pdfrwt beam="1">  1       -1 0.63168243E-03 0.42517000E+02</pdfrwt>
<totfact> 0.76674357E+05</totfact>
</mgrwt>
</event>
<event>
 4    1  0.1893769E-002  0.4727265E+02  0.7818608E-02  0.1460633E+00
         -1   -1    0    0  501    0 -0.00000000000E+00  0.00000000000E+00  0.11397706833E+01  0.11397818265E+01  0.50400000000E-02 0. -1.
          1   -1    0    0    0  501  0.00000000000E+00 -0.00000000000E+00 -0.49016265723E+03  0.49016265726E+03  0.50400000000E-02 0. -1.
          2    1    1    2    0  502 -0.16712985679E+02 -0.13902635025E+02 -0.34093017365E+03  0.34162258483E+03  0.25500000000E-02 0.  1.
         -2    1    1    2  502    0  0.16712985679E+02  0.13902635025E+02 -0.14809271290E+03  0.14967985426E+03  0.25500000000E-02 0.  1.
<mgrwt>
<rscale>  0 0.47272646E+02</rscale>
<asrwt>0</asrwt>
<pdfrwt beam="2">  1        1 0.75409472E-01 0.47272646E+02</pdfrwt>
<pdfrwt beam="1">  1       -1 0.17535059E-03 0.47272646E+02</pdfrwt>
<totfact> 0.74701839E+05</totfact>
</mgrwt>
</event>
<event>
 4    1  0.1893769E-002  0.9730838E+02  0.7818608E-02  0.1286060E+00
          1   -1    0    0    0  501  0.00000000000E+00  0.00000000000E+00  0.23309319861E+02  0.23309320406E+02  0.50400000000E-02 0.  1.
         -1   -1    0    0  501    0 -0.00000000000E+00 -0.00000000000E+00 -0.10155724703E+03  0.10155724716E+03  0.50400000000E-02 0.  1.
          2    1    1    2    0  502 -0.14169445872E+02 -0.22790730017E+02 -0.91201204029E+02  0.95067608542E+02  0.25500000000E-02 0. -1.
         -2    1    1    2  502    0  0.14169445872E+02  0.22790730017E+02  0.12953276856E+02  0.29798959023E+02  0.25500000000E-02 0. -1.
<mgrwt>
<rscale>  0 0.97308384E+02</rscale>
<asrwt>0</asrwt>
<pdfrwt beam="1">  1        1 0.35860493E-02 0.97308384E+02</pdfrwt>
<pdfrwt beam="2">  1       -1 0.15624192E-01 0.97308384E+02</pdfrwt>
<totfact> 0.68591387E+04</totfact>
</mgrwt>
</event>
<event>
 4    1  0.1893769E-002  0.6439630E+02  0.7818608E-02  0.1380257E+00
          1   -1    0    0    0  501  0.00000000000E+00  0.00000000000E+00  0.97905583101E+02  0.97905583231E+02  0.50400000000E-02 0.  1.
         -1   -1    0    0  501    0 -0.00000000000E+00 -0.00000000000E+00 -0.10588987025E+02  0.10588988224E+02  0.50400000000E-02 0.  1.
          2    1    1    2    0  502  0.17593405829E+01  0.31130832217E+02  0.30127703237E+02  0.43357842458E+02  0.25500000000E-02 0. -1.
         -2    1    1    2  502    0 -0.17593405829E+01 -0.31130832217E+02  0.57188892839E+02  0.65136728997E+02  0.25500000000E-02 0. -1.
<mgrwt>
<rscale>  0 0.64396305E+02</rscale>
<asrwt>0</asrwt>
<pdfrwt beam="1">  1        1 0.15062398E-01 0.64396305E+02</pdfrwt>
<pdfrwt beam="2">  1       -1 0.16290750E-02 0.64396305E+02</pdfrwt>
<totfact> 0.26304270E+05</totfact>
</mgrwt>
</event>
<event>
 4    1  0.1893769E-002  0.4489932E+02  0.7818608E-02  0.1474971E+00
          1   -1    0    0    0  501  0.00000000000E+00  0.00000000000E+00  0.27443928648E+03  0.27443928653E+03  0.50400000000E-02 0.  1.
         -1   -1    0    0  501    0 -0.00000000000E+00 -0.00000000000E+00 -0.18364217380E+01  0.18364286540E+01  0.50400000000E-02 0.  1.
          2    1    1    2    0  502 -0.88709597928E+01  0.20576886657E+02  0.14474960168E+03  0.14647371568E+03  0.25500000000E-02 0.  1.
         -2    1    1    2  502    0  0.88709597928E+01 -0.20576886657E+02  0.12785326307E+03  0.12980199951E+03  0.25500000000E-02 0.  1.
<mgrwt>
<rscale>  0 0.44899320E+02</rscale>
<asrwt>0</asrwt>
<pdfrwt beam="1">  1        1 0.42221418E-01 0.44899320E+02</pdfrwt>
<pdfrwt beam="2">  1       -1 0.28252704E-03 0.44899320E+02</pdfrwt>
<totfact> 0.77590975E+05</totfact>
</mgrwt>
</event>
<event>
 4    1  0.1893769E-002  0.4532762E+02  0.7818608E-02  0.1472307E+00
          1   -1    0    0    0  501  0.00000000000E+00  0.00000000000E+00  0.18419671456E+02  0.18419672145E+02  0.50400000000E-02 0. -1.
         -1   -1    0    0  501    0 -0.00000000000E+00 -0.00000000000E+00 -0.27885852739E+02  0.27885853194E+02  0.50400000000E-02 0. -1.
          2    1    1    2    0  502 -0.18266217539E+02 -0.11579394063E+02 -0.11655052562E+02  0.24567810785E+02  0.25500000000E-02 0. -1.
         -2    1    1    2  502    0  0.18266217539E+02  0.11579394063E+02  0.21888712791E+01  0.21737714554E+02  0.25500000000E-02 0. -1.
<mgrwt>
<rscale>  0 0.45327619E+02</rscale>
<asrwt>0</asrwt>
<pdfrwt beam="1">  1        1 0.28337957E-02 0.45327619E+02</pdfrwt>
<pdfrwt beam="2">  1       -1 0.42901313E-02 0.45327619E+02</pdfrwt>
<totfact> 0.54922754E+05</totfact>
</mgrwt>
</event>
<event>
 4    1  0.1893769E-002  0.5494541E+02  0.7818608E-02  0.1420357E+00
         -1   -1    0    0  501    0 -0.00000000000E+00  0.00000000000E+00  0.95978099235E+01  0.95978112468E+01  0.50400000000E-02 0.  1.
          1   -1    0    0    0  501  0.00000000000E+00 -0.00000000000E+00 -0.78637686778E+02  0.78637686940E+02  0.50400000000E-02 0.  1.
          2    1    1    2    0  502  0.17644340627E+02  0.21033490036E+02 -0.32898743398E+02  0.42849244835E+02  0.25500000000E-02 0. -1.
         -2    1    1    2  502    0 -0.17644340627E+02 -0.21033490036E+02 -0.36141133457E+02  0.45386253352E+02  0.25500000000E-02 0. -1.
<mgrwt>
<rscale>  0 0.54945414E+02</rscale>
<asrwt>0</asrwt>
<pdfrwt beam="2">  1        1 0.12098105E-01 0.54945414E+02</pdfrwt>
<pdfrwt beam="1">  1       -1 0.14765863E-02 0.54945414E+02</pdfrwt>
<totfact> 0.38509389E+05</totfact>
</mgrwt>
</event>
<event>
 4    1  0.1893769E-002  0.4240403E+02  0.7818608E-02  0.1491231E+00
          1   -1    0    0    0  501  0.00000000000E+00  0.00000000000E+00  0.38272589913E+03  0.38272589916E+03  0.50400000000E-02 0. -1.
         -1   -1    0    0  501    0 -0.00000000000E+00 -0.00000000000E+00 -0.11745308351E+01  0.11745416485E+01  0.50400000000E-02 0. -1.
          2    1    1    2    0  502  0.17086034588E+01  0.20759928441E+02  0.15498156566E+03  0.15637512480E+03  0.25500000000E-02 0. -1.
         -2    1    1    2  502    0 -0.17086034588E+01 -0.20759928441E+02  0.22656980264E+03  0.22752531602E+03  0.25500000000E-02 0. -1.
<mgrwt>
<rscale>  0 0.42404031E+02</rscale>
<asrwt>0</asrwt>
<pdfrwt beam="1">  1        1 0.58880960E-01 0.42404031E+02</pdfrwt>
<pdfrwt beam="2">  1       -1 0.18069773E-03 0.42404031E+02</pdfrwt>
<totfact> 0.94317744E+05</totfact>
</mgrwt>
</event>
<event>
 4    1  0.1893769E-002  0.4224756E+02  0.7818608E-02  0.1492294E+00
          1   -1    0    0    0  501  0.00000000000E+00  0.00000000000E+00  0.13815721306E+02  0.13815722225E+02  0.50400000000E-02 0.  1.
         -1   -1    0    0  501    0 -0.00000000000E+00 -0.00000000000E+00 -0.32297561653E+02  0.32297562047E+02  0.50400000000E-02 0.  1.
          2    1    1    2    0  502 -0.18111618290E+02  0.10085723647E+02 -0.13669458031E+02  0.24831565153E+02  0.25500000000E-02 0.  1.
         -2    1    1    2  502    0  0.18111618290E+02 -0.10085723647E+02 -0.48123823171E+01  0.21281719119E+02  0.25500000000E-02 0.  1.
<mgrwt>
<rscale>  0 0.42247563E+02</rscale>
<asrwt>0</asrwt>
<pdfrwt beam="1">  1        1 0.21254957E-02 0.42247563E+02</pdfrwt>
<pdfrwt beam="2">  1       -1 0.49688557E-02 0.42247563E+02</pdfrwt>
<totfact> 0.64274643E+05</totfact>
</mgrwt>
</event>
<event>
 4    1  0.1893769E-002  0.8207091E+02  0.7818608E-02  0.1323275E+00
         -1   -1    0    0  501    0 -0.00000000000E+00  0.00000000000E+00  0.64362196667E+01  0.64362216400E+01  0.50400000000E-02 0.  1.
          1   -1    0    0    0  501  0.00000000000E+00 -0.00000000000E+00 -0.26163001786E+03  0.26163001791E+03  0.50400000000E-02 0.  1.
          2    1    1    2    0  502  0.34071281863E+02  0.89546613392E+01 -0.19633399296E+03  0.19946948390E+03  0.25500000000E-02 0.  1.
         -2    1    1    2  502    0 -0.34071281863E+02 -0.89546613392E+01 -0.58859805231E+02  0.68596755651E+02  0.25500000000E-02 0.  1.
<mgrwt>
<rscale>  0 0.82070909E+02</rscale>
<asrwt>0</asrwt>
<pdfrwt beam="2">  1        1 0.40250764E-01 0.82070909E+02</pdfrwt>
<pdfrwt beam="1">  1       -1 0.99018800E-03 0.82070909E+02</pdfrwt>
<totfact> 0.16496235E+05</totfact>
</mgrwt>
</event>
<event>
 4    1  0.1893769E-002  0.4545057E+02  0.7818608E-02  0.1471548E+00
         -1   -1    0    0  501    0 -0.00000000000E+00  0.00000000000E+00  0.11196524308E+01  0.11196637742E+01  0.50400000000E-02 0.  1.
          1   -1    0    0    0  501  0.00000000000E+00 -0.00000000000E+00 -0.46124667266E+03  0.46124667268E+03  0.50400000000E-02 0.  1.
          2    1    1    2    0  502  0.21021534918E+02 -0.41264702825E+01 -0.15291935167E+03  0.15441263163E+03  0.25500000000E-02 0. -1.
         -2    1    1    2  502    0 -0.21021534918E+02  0.41264702825E+01 -0.30720766856E+03  0.30795370483E+03  0.25500000000E-02 0. -1.
<mgrwt>
<rscale>  0 0.45450570E+02</rscale>
<asrwt>0</asrwt>
<pdfrwt beam="2">  1        1 0.70960876E-01 0.45450570E+02</pdfrwt>
<pdfrwt beam="1">  1       -1 0.17225546E-03 0.45450570E+02</pdfrwt>
<totfact> 0.81700399E+05</totfact>
</mgrwt>
</event>
<event>
 4    1  0.1893769E-002  0.5300515E+02  0.7818608E-02  0.1429775E+00
          1   -1    0    0    0  501  0.00000000000E+00  0.00000000000E+00  0.13756642585E+03  0.13756642595E+03  0.50400000000E-02 0. -1.
         -1   -1    0    0  501    0 -0.00000000000E+00 -0.00000000000E+00 -0.51057979354E+01  0.51058004229E+01  0.50400000000E-02 0. -1.
          2    1    1    2    0  502 -0.22119479976E+02  0.10108008820E+02  0.37879083364E+02  0.45014088902E+02  0.25500000000E-02 0. -1.
         -2    1    1    2  502    0  0.22119479976E+02 -0.10108008820E+02  0.94581544555E+02  0.97658137468E+02  0.25500000000E-02 0. -1.
<mgrwt>
<rscale>  0 0.53005153E+02</rscale>
<asrwt>0</asrwt>
<pdfrwt beam="1">  1        1 0.21164061E-01 0.53005153E+02</pdfrwt>
<pdfrwt beam="2">  1       -1 0.78550776E-03 0.53005153E+02</pdfrwt>
<totfact> 0.45624337E+05</totfact>
</mgrwt>
</event>
<event>
 4    1  0.1893769E-002  0.7273775E+02  0.7818608E-02  0.1351023E+00
         -1   -1    0    0  501    0 -0.00000000000E+00  0.00000000000E+00  0.45027449691E+03  0.45027449694E+03  0.50400000000E-02 0.  1.
          1   -1    0    0    0  501  0.00000000000E+00 -0.00000000000E+00 -0.29375285132E+01  0.29375328368E+01  0.50400000000E-02 0.  1.
          2    1    1    2    0  502 -0.26900885115E+01  0.36132266626E+02  0.24329083760E+03  0.24597400052E+03  0.25500000000E-02 0. -1.
         -2    1    1    2  502    0  0.26900885115E+01 -0.36132266626E+02  0.20404613080E+03  0.20723802925E+03  0.25500000000E-02 0. -1.
<mgrwt>
<rscale>  0 0.72737752E+02</rscale>
<asrwt>0</asrwt>
<pdfrwt beam="2">  1        1 0.45192764E-03 0.72737752E+02</pdfrwt>
<pdfrwt beam="1">  1       -1 0.69273024E-01 0.72737752E+02</pdfrwt>
<totfact> 0.89981448E+04</totfact>
</mgrwt>
</event>
<event>
 4    1  0.1893769E-002  0.4566971E+02  0.7818608E-02  0.1470204E+00
          1   -1    0    0    0  501  0.00000000000E+00  0.00000000000E+00  0.14412867001E+03  0.14412867010E+03  0.50400000000E-02 0. -1.
         -1   -1    0    0  501    0 -0.00000000000E+00 -0.00000000000E+00 -0.36178105790E+01  0.36178140896E+01  0.50400000000E-02 0. -1.
          2    1    1    2    0  502  0.22241491854E+02  0.11134831212E+01  0.86594070703E+02  0.89411726814E+02  0.25500000000E-02 0.  1.
         -2    1    1    2  502    0 -0.22241491854E+02 -0.11134831212E+01  0.53916788731E+02  0.58334757376E+02  0.25500000000E-02 0.  1.
<mgrwt>
<rscale>  0 0.45669705E+02</rscale>
<asrwt>0</asrwt>
<pdfrwt beam="1">  1        1 0.22173642E-01 0.45669705E+02</pdfrwt>
<pdfrwt beam="2">  1       -1 0.55658652E-03 0.45669705E+02</pdfrwt>
<totfact> 0.66770892E+05</totfact>
</mgrwt>
</event>
<event>
 4    1  0.1893769E-002  0.5005160E+02  0.7818608E-02  0.1445063E+00
          1   -1    0    0    0  501  0.00000000000E+00  0.00000000000E+00  0.32723034634E+03  0.32723034638E+03  0.50400000000E-02 0. -1.
         -1   -1    0    0  501    0 -0.00000000000E+00 -0.00000000000E+00 -0.19139106869E+01  0.19139173229E+01  0.50400000000E-02 0. -1.
          2    1    1    2    0  502 -0.24092209058E+02 -0.63095628914E+01  0.14648900056E+03  0.14859095670E+03  0.25500000000E-02 0.  1.
         -2    1    1    2  502    0  0.24092209058E+02  0.63095628914E+01  0.17882743509E+03  0.18055330700E+03  0.25500000000E-02 0.  1.
<mgrwt>
<rscale>  0 0.50051604E+02</rscale>
<asrwt>0</asrwt>
<pdfrwt beam="1">  1        1 0.50343141E-01 0.50051604E+02</pdfrwt>
<pdfrwt beam="2">  1       -1 0.29444825E-03 0.50051604E+02</pdfrwt>
<totfact> 0.61110754E+05</totfact>
</mgrwt>
</event>
<event>
 4    1  0.1893769E-002  0.1319885E+03  0.7818608E-02  0.1224535E+00
         -1   -1    0    0  501    0 -0.00000000000E+00  0.00000000000E+00  0.20965545612E+01  0.20965606191E+01  0.50400000000E-02 0. -1.
          1   -1    0    0    0  501  0.00000000000E+00 -0.00000000000E+00 -0.20773292656E+04  0.20773292656E+04  0.50400000000E-02 0. -1.
          2    1    1    2    0  502  0.36645555172E+02 -0.48184076184E+02 -0.14516472722E+04  0.14529089458E+04  0.25500000000E-02 0.  1.
         -2    1    1    2  502    0 -0.36645555172E+02  0.48184076184E+02 -0.62358543884E+03  0.62651688042E+03  0.25500000000E-02 0.  1.
<mgrwt>
<rscale>  0 0.13198849E+03</rscale>
<asrwt>0</asrwt>
<pdfrwt beam="2">  1        1 0.31958747E+00 0.13198849E+03</pdfrwt>
<pdfrwt beam="1">  1       -1 0.32254898E-03 0.13198849E+03</pdfrwt>
<totfact> 0.27652871E+04</totfact>
</mgrwt>
</event>
<event>
 4    1  0.1893769E-002  0.6271161E+02  0.7818608E-02  0.1386792E+00
          1   -1    0    0    0  501  0.00000000000E+00  0.00000000000E+00  0.72313707979E+01  0.72313725542E+01  0.50400000000E-02 0. -1.
         -1   -1    0    0  501    0 -0.00000000000E+00 -0.00000000000E+00 -0.13596125432E+03  0.13596125441E+03  0.50400000000E-02 0. -1.
          2    1    1    2    0  502 -0.24511796085E+02 -0.10310973558E+02 -0.26428171505E+02  0.37491233357E+02  0.25500000000E-02 0.  1.
         -2    1    1    2  502    0  0.24511796085E+02  0.10310973558E+02 -0.10230171202E+03  0.10570139361E+03  0.25500000000E-02 0.  1.
<mgrwt>
<rscale>  0 0.62711606E+02</rscale>
<asrwt>0</asrwt>
<pdfrwt beam="1">  1        1 0.11125188E-02 0.62711606E+02</pdfrwt>
<pdfrwt beam="2">  1       -1 0.20917114E-01 0.62711606E+02</pdfrwt>
<totfact> 0.19948820E+05</totfact>
</mgrwt>
</event>
<event>
 4    1  0.1893769E-002  0.8221172E+02  0.7818608E-02  0.1322890E+00
         -1   -1    0    0  501    0 -0.00000000000E+00  0.00000000000E+00  0.66749895454E+02  0.66749895645E+02  0.50400000000E-02 0.  1.
          1   -1    0    0    0  501  0.00000000000E+00 -0.00000000000E+00 -0.25313775155E+02  0.25313775657E+02  0.50400000000E-02 0.  1.
          2    1    1    2    0  502 -0.91489211292E+01  0.30511112289E+02  0.49813577909E+02  0.59127178874E+02  0.25500000000E-02 0. -1.
         -2    1    1    2  502    0  0.91489211292E+01 -0.30511112289E+02 -0.83774576104E+01  0.32936492428E+02  0.25500000000E-02 0. -1.
<mgrwt>
<rscale>  0 0.82211724E+02</rscale>
<asrwt>0</asrwt>
<pdfrwt beam="2">  1        1 0.38944270E-02 0.82211724E+02</pdfrwt>
<pdfrwt beam="1">  1       -1 0.10269215E-01 0.82211724E+02</pdfrwt>
<totfact> 0.11343936E+05</totfact>
</mgrwt>
</event>
<event>
 4    1  0.1893769E-002  0.7373609E+02  0.7818608E-02  0.1347830E+00
          1   -1    0    0    0  501  0.00000000000E+00  0.00000000000E+00  0.17973091402E+02  0.17973092108E+02  0.50400000000E-02 0. -1.
         -1   -1    0    0  501    0 -0.00000000000E+00 -0.00000000000E+00 -0.75627100246E+02  0.75627100414E+02  0.50400000000E-02 0. -1.
          2    1    1    2    0  502  0.26397098111E+02  0.16567475141E+02 -0.53830042661E+02  0.62200976846E+02  0.25500000000E-02 0. -1.
         -2    1    1    2  502    0 -0.26397098111E+02 -0.16567475141E+02 -0.38239661836E+01  0.31399215676E+02  0.25500000000E-02 0. -1.
<mgrwt>
<rscale>  0 0.73736092E+02</rscale>
<asrwt>0</asrwt>
<pdfrwt beam="1">  1        1 0.27650911E-02 0.73736092E+02</pdfrwt>
<pdfrwt beam="2">  1       -1 0.11634938E-01 0.73736092E+02</pdfrwt>
<totfact> 0.14673883E+05</totfact>
</mgrwt>
</event>
<event>
 4    1  0.1893769E-002  0.6745558E+02  0.7818608E-02  0.1368966E+00
         -1   -1    0    0  501    0 -0.00000000000E+00  0.00000000000E+00  0.45664886952E+01  0.45664914765E+01  0.50400000000E-02 0. -1.
          1   -1    0    0    0  501  0.00000000000E+00 -0.00000000000E+00 -0.24911120795E+03  0.24911120800E+03  0.50400000000E-02 0. -1.
          2    1    1    2    0  502 -0.33245745171E+02  0.12613324398E+01 -0.10143769821E+03  0.10675428402E+03  0.25500000000E-02 0. -1.
         -2    1    1    2  502    0  0.33245745171E+02 -0.12613324398E+01 -0.14310702104E+03  0.14692341546E+03  0.25500000000E-02 0. -1.
<mgrwt>
<rscale>  0 0.67455582E+02</rscale>
<asrwt>0</asrwt>
<pdfrwt beam="2">  1        1 0.38324791E-01 0.67455582E+02</pdfrwt>
<pdfrwt beam="1">  1       -1 0.70253713E-03 0.67455582E+02</pdfrwt>
<totfact> 0.27282775E+05</totfact>
</mgrwt>
</event>
<event>
 4    1  0.1893769E-002  0.5221759E+02  0.7818608E-02  0.1433735E+00
         -1   -1    0    0  501    0 -0.00000000000E+00  0.00000000000E+00  0.45001383082E+03  0.45001383085E+03  0.50400000000E-02 0.  1.
          1   -1    0    0    0  501  0.00000000000E+00 -0.00000000000E+00 -0.15147693967E+01  0.15147777813E+01  0.50400000000E-02 0.  1.
          2    1    1    2    0  502  0.12016804507E+02  0.22373094551E+02  0.27664109798E+03  0.27780434850E+03  0.25500000000E-02 0. -1.
         -2    1    1    2  502    0 -0.12016804507E+02 -0.22373094551E+02  0.17185796345E+03  0.17372426013E+03  0.25500000000E-02 0. -1.
<mgrwt>
<rscale>  0 0.52217586E+02</rscale>
<asrwt>0</asrwt>
<pdfrwt beam="2">  1        1 0.23304193E-03 0.52217586E+02</pdfrwt>
<pdfrwt beam="1">  1       -1 0.69232945E-01 0.52217586E+02</pdfrwt>
<totfact> 0.20834391E+05</totfact>
</mgrwt>
</event>
<event>
 4    1  0.1893769E-002  0.1044823E+03  0.7818608E-02  0.1271143E+00
          1   -1    0    0    0  501  0.00000000000E+00  0.00000000000E+00  0.23072495615E+03  0.23072495620E+03  0.50400000000E-02 0. -1.
         -1   -1    0    0  501    0 -0.00000000000E+00 -0.00000000000E+00 -0.11828527412E+02  0.11828528486E+02  0.50400000000E-02 0. -1.
          2    1    1    2    0  502  0.33435189960E+02 -0.39072627759E+02  0.88101400091E+02  0.10201195455E+03  0.25500000000E-02 0. -1.
         -2    1    1    2  502    0 -0.33435189960E+02  0.39072627759E+02  0.13079502865E+03  0.14054153013E+03  0.25500000000E-02 0. -1.
<mgrwt>
<rscale>  0 0.10448228E+03</rscale>
<asrwt>0</asrwt>
<pdfrwt beam="1">  1        1 0.35496144E-01 0.10448228E+03</pdfrwt>
<pdfrwt beam="2">  1       -1 0.18197737E-02 0.10448228E+03</pdfrwt>
<totfact> 0.84328564E+04</totfact>
</mgrwt>
</event>
<event>
 4    1  0.1893769E-002  0.6568426E+02  0.7818608E-02  0.1375416E+00
         -1   -1    0    0  501    0 -0.00000000000E+00  0.00000000000E+00  0.29875721384E+01  0.29875763896E+01  0.50400000000E-02 0.  1.
          1   -1    0    0    0  501  0.00000000000E+00 -0.00000000000E+00 -0.36103054293E+03  0.36103054296E+03  0.50400000000E-02 0.  1.
          2    1    1    2    0  502 -0.26155043369E+02 -0.99717906460E+01 -0.27422073454E+03  0.27564566777E+03  0.25500000000E-02 0. -1.
         -2    1    1    2  502    0  0.26155043369E+02  0.99717906460E+01 -0.83822236248E+02  0.88372451581E+02  0.25500000000E-02 0. -1.
<mgrwt>
<rscale>  0 0.65684262E+02</rscale>
<asrwt>0</asrwt>
<pdfrwt beam="2">  1        1 0.55543126E-01 0.65684262E+02</pdfrwt>
<pdfrwt beam="1">  1       -1 0.45962710E-03 0.65684262E+02</pdfrwt>
<totfact> 0.31231172E+05</totfact>
</mgrwt>
</event>
<event>
 4    1  0.1893769E-002  0.7759334E+02  0.7818608E-02  0.1336023E+00
          1   -1    0    0    0  501  0.00000000000E+00  0.00000000000E+00  0.15133645057E+03  0.15133645065E+03  0.50400000000E-02 0. -1.
         -1   -1    0    0  501    0 -0.00000000000E+00 -0.00000000000E+00 -0.99459284357E+01  0.99459297127E+01  0.50400000000E-02 0. -1.
          2    1    1    2    0  502 -0.18757977608E+02 -0.12618292455E+02  0.13623084950E+03  0.13809390787E+03  0.25500000000E-02 0.  1.
         -2    1    1    2  502    0  0.18757977608E+02  0.12618292455E+02  0.51596726295E+01  0.23188472493E+02  0.25500000000E-02 0.  1.
<mgrwt>
<rscale>  0 0.77593340E+02</rscale>
<asrwt>0</asrwt>
<pdfrwt beam="1">  1        1 0.23282531E-01 0.77593340E+02</pdfrwt>
<pdfrwt beam="2">  1       -1 0.15301429E-02 0.77593340E+02</pdfrwt>
<totfact> 0.17280668E+05</totfact>
</mgrwt>
</event>
<event>
 4    1  0.1893769E-002  0.4739671E+02  0.7818608E-02  0.1459911E+00
         -1   -1    0    0  501    0 -0.00000000000E+00  0.00000000000E+00  0.28529825141E+01  0.28529869658E+01  0.50400000000E-02 0.  1.
          1   -1    0    0    0  501  0.00000000000E+00 -0.00000000000E+00 -0.19685065697E+03  0.19685065703E+03  0.50400000000E-02 0.  1.
          2    1    1    2    0  502  0.19908876151E+02 -0.12679319680E+02 -0.10592044249E+03  0.10851851750E+03  0.25500000000E-02 0.  1.
         -2    1    1    2  502    0 -0.19908876151E+02  0.12679319680E+02 -0.88077231965E+02  0.91185126497E+02  0.25500000000E-02 0.  1.
<mgrwt>
<rscale>  0 0.47396706E+02</rscale>
<asrwt>0</asrwt>
<pdfrwt beam="2">  1        1 0.30284706E-01 0.47396706E+02</pdfrwt>
<pdfrwt beam="1">  1       -1 0.43892089E-03 0.47396706E+02</pdfrwt>
<totfact> 0.64054274E+05</totfact>
</mgrwt>
</event>
<event>
 4    1  0.1893769E-002  0.8095103E+02  0.7818608E-02  0.1326374E+00
          1   -1    0    0    0  501  0.00000000000E+00  0.00000000000E+00  0.20130374253E+04  0.20130374253E+04  0.50400000000E-02 0. -1.
         -1   -1    0    0  501    0 -0.00000000000E+00 -0.00000000000E+00 -0.81382072169E+00  0.81383632793E+00  0.50400000000E-02 0. -1.
          2    1    1    2    0  502 -0.37117108782E+02  0.16119083507E+02  0.10278374374E+04  0.10286337066E+04  0.25500000000E-02 0. -1.
         -2    1    1    2  502    0  0.37117108782E+02 -0.16119083507E+02  0.98438616713E+03  0.98521755499E+03  0.25500000000E-02 0. -1.
<mgrwt>
<rscale>  0 0.80951029E+02</rscale>
<asrwt>0</asrwt>
<pdfrwt beam="1">  1        1 0.30970066E+00 0.80951029E+02</pdfrwt>
<pdfrwt beam="2">  1       -1 0.12520334E-03 0.80951029E+02</pdfrwt>
<totfact> 0.10812655E+05</totfact>
</mgrwt>
</event>
<event>
 4    1  0.1893769E-002  0.4934644E+02  0.7818608E-02  0.1448899E+00
         -1   -1    0    0  501    0 -0.00000000000E+00  0.00000000000E+00  0.17255976681E+01  0.17256050283E+01  0.50400000000E-02 0.  1.
          1   -1    0    0    0  501  0.00000000000E+00 -0.00000000000E+00 -0.35278580940E+03  0.35278580944E+03  0.50400000000E-02 0.  1.
          2    1    1    2    0  502  0.11692638721E+02 -0.18964713624E+02 -0.25169192787E+03  0.25267608657E+03  0.25500000000E-02 0.  1.
         -2    1    1    2  502    0 -0.11692638721E+02  0.18964713624E+02 -0.99368283860E+02  0.10183532789E+03  0.25500000000E-02 0.  1.
<mgrwt>
<rscale>  0 0.49346436E+02</rscale>
<asrwt>0</asrwt>
<pdfrwt beam="2">  1        1 0.54274683E-01 0.49346436E+02</pdfrwt>
<pdfrwt beam="1">  1       -1 0.26547741E-03 0.49346436E+02</pdfrwt>
<totfact> 0.64103331E+05</totfact>
</mgrwt>
</event>
<event>
 4    1  0.1893769E-002  0.6816615E+02  0.7818608E-02  0.1366443E+00
          1   -1    0    0    0  501  0.00000000000E+00  0.00000000000E+00  0.11523105468E+03  0.11523105479E+03  0.50400000000E-02 0.  1.
         -1   -1    0    0  501    0 -0.00000000000E+00 -0.00000000000E+00 -0.10081102593E+02  0.10081103853E+02  0.50400000000E-02 0.  1.
          2    1    1    2    0  502  0.56372443243E+01 -0.23125551029E+02  0.77299300604E+01  0.25026415229E+02  0.25500000000E-02 0.  1.
         -2    1    1    2  502    0 -0.56372443243E+01  0.23125551029E+02  0.97420022026E+02  0.10028574341E+03  0.25500000000E-02 0.  1.
<mgrwt>
<rscale>  0 0.68166155E+02</rscale>
<asrwt>0</asrwt>
<pdfrwt beam="1">  1        1 0.17727856E-01 0.68166155E+02</pdfrwt>
<pdfrwt beam="2">  1       -1 0.15509389E-02 0.68166155E+02</pdfrwt>
<totfact> 0.23227118E+05</totfact>
</mgrwt>
</event>
<event>
 4    1  0.1893769E-002  0.4782449E+02  0.7818608E-02  0.1457442E+00
          1   -1    0    0    0  501  0.00000000000E+00  0.00000000000E+00  0.61262466534E+03  0.61262466536E+03  0.50400000000E-02 0.  1.
         -1   -1    0    0  501    0 -0.00000000000E+00 -0.00000000000E+00 -0.93334697967E+00  0.93336058737E+00  0.50400000000E-02 0.  1.
          2    1    1    2    0  502 -0.15598342032E+02  0.12831967818E+02  0.47005549455E+03  0.47048925135E+03  0.25500000000E-02 0. -1.
         -2    1    1    2  502    0  0.15598342032E+02 -0.12831967818E+02  0.14163582381E+03  0.14306877460E+03  0.25500000000E-02 0. -1.
<mgrwt>
<rscale>  0 0.47824494E+02</rscale>
<asrwt>0</asrwt>
<pdfrwt beam="1">  1        1 0.94250094E-01 0.47824494E+02</pdfrwt>
<pdfrwt beam="2">  1       -1 0.14359267E-03 0.47824494E+02</pdfrwt>
<totfact> 0.73912541E+05</totfact>
</mgrwt>
</event>
<event>
 4    1  0.1893769E-002  0.1074942E+03  0.7818608E-02  0.1265282E+00
          1   -1    0    0    0  501  0.00000000000E+00  0.00000000000E+00  0.47022389521E+03  0.47022389524E+03  0.50400000000E-02 0.  1.
         -1   -1    0    0  501    0 -0.00000000000E+00 -0.00000000000E+00 -0.61433537930E+01  0.61433558604E+01  0.50400000000E-02 0.  1.
          2    1    1    2    0  502 -0.10189111610E+02  0.52174989942E+02  0.19694838530E+03  0.20399684814E+03  0.25500000000E-02 0.  1.
         -2    1    1    2  502    0  0.10189111610E+02 -0.52174989942E+02  0.26713215611E+03  0.27237040296E+03  0.25500000000E-02 0.  1.
<mgrwt>
<rscale>  0 0.10749423E+03</rscale>
<asrwt>0</asrwt>
<pdfrwt beam="1">  1        1 0.72342148E-01 0.10749423E+03</pdfrwt>
<pdfrwt beam="2">  1       -1 0.94513138E-03 0.10749423E+03</pdfrwt>
<totfact> 0.88991529E+04</totfact>
</mgrwt>
</event>
<event>
 4    1  0.1893769E-002  0.4796989E+02  0.7818608E-02  0.1456609E+00
          1   -1    0    0    0  501  0.00000000000E+00  0.00000000000E+00  0.34010794566E+03  0.34010794570E+03  0.50400000000E-02 0. -1.
         -1   -1    0    0  501    0 -0.00000000000E+00 -0.00000000000E+00 -0.16914521846E+01  0.16914596934E+01  0.50400000000E-02 0. -1.
          2    1    1    2    0  502 -0.84903542857E+01 -0.21483257230E+02  0.21519875562E+03  0.21643502694E+03  0.25500000000E-02 0.  1.
         -2    1    1    2  502    0  0.84903542857E+01  0.21483257230E+02  0.12321773786E+03  0.12536437846E+03  0.25500000000E-02 0.  1.
<mgrwt>
<rscale>  0 0.47969891E+02</rscale>
<asrwt>0</asrwt>
<pdfrwt beam="1">  1        1 0.52324283E-01 0.47969891E+02</pdfrwt>
<pdfrwt beam="2">  1       -1 0.26022408E-03 0.47969891E+02</pdfrwt>
<totfact> 0.68354599E+05</totfact>
</mgrwt>
</event>
<event>
 4    1  0.1893769E-002  0.6577771E+02  0.7818608E-02  0.1375070E+00
          1   -1    0    0    0  501  0.00000000000E+00  0.00000000000E+00  0.12753629446E+03  0.12753629456E+03  0.50400000000E-02 0. -1.
         -1   -1    0    0  501    0 -0.00000000000E+00 -0.00000000000E+00 -0.84813242397E+01  0.84813257372E+01  0.50400000000E-02 0. -1.
          2    1    1    2    0  502  0.46442114426E+01 -0.24851549509E+02  0.16028686744E+02  0.29934712595E+02  0.25500000000E-02 0.  1.
         -2    1    1    2  502    0 -0.46442114426E+01  0.24851549509E+02  0.10302628347E+03  0.10608290770E+03  0.25500000000E-02 0.  1.
<mgrwt>
<rscale>  0 0.65777710E+02</rscale>
<asrwt>0</asrwt>
<pdfrwt beam="1">  1        1 0.19620969E-01 0.65777710E+02</pdfrwt>
<pdfrwt beam="2">  1       -1 0.13048192E-02 0.65777710E+02</pdfrwt>
<totfact> 0.25902931E+05</totfact>
</mgrwt>
</event>
<event>
 4    1  0.1893769E-002  0.4314017E+02  0.7818608E-02  0.1486298E+00
         -1   -1    0    0  501    0 -0.00000000000E+00  0.00000000000E+00  0.21428939223E+01  0.21428998492E+01  0.50400000000E-02 0.  1.
          1   -1    0    0    0  501  0.00000000000E+00 -0.00000000000E+00 -0.21712131697E+03  0.21712131703E+03  0.50400000000E-02 0.  1.
          2    1    1    2    0  502  0.14682737305E+02 -0.15460149985E+02 -0.90887238092E+02  0.93354641378E+02  0.25500000000E-02 0.  1.
         -2    1    1    2  502    0 -0.14682737305E+02  0.15460149985E+02 -0.12409118495E+03  0.12590957550E+03  0.25500000000E-02 0.  1.
<mgrwt>
<rscale>  0 0.43140172E+02</rscale>
<asrwt>0</asrwt>
<pdfrwt beam="2">  1        1 0.33403263E-01 0.43140172E+02</pdfrwt>
<pdfrwt beam="1">  1       -1 0.32967662E-03 0.43140172E+02</pdfrwt>
<totfact> 0.82204720E+05</totfact>
</mgrwt>
</event>
<event>
 4    1  0.1893769E-002  0.5367519E+02  0.7818608E-02  0.1426470E+00
          1   -1    0    0    0  501  0.00000000000E+00  0.00000000000E+00  0.23847512531E+01  0.23847565789E+01  0.50400000000E-02 0. -1.
         -1   -1    0    0  501    0 -0.00000000000E+00 -0.00000000000E+00 -0.30202550406E+03  0.30202550410E+03  0.50400000000E-02 0. -1.
          2    1    1    2    0  502 -0.26164390131E+02  0.47471140804E+01 -0.17038327200E+03  0.17244584595E+03  0.25500000000E-02 0. -1.
         -2    1    1    2  502    0  0.26164390131E+02 -0.47471140804E+01 -0.12925748081E+03  0.13196441473E+03  0.25500000000E-02 0. -1.
<mgrwt>
<rscale>  0 0.53675190E+02</rscale>
<asrwt>0</asrwt>
<pdfrwt beam="1">  1        1 0.36688546E-03 0.53675190E+02</pdfrwt>
<pdfrwt beam="2">  1       -1 0.46465432E-01 0.53675190E+02</pdfrwt>
<totfact> 0.23450804E+05</totfact>
</mgrwt>
</event>
<event>
 4    1  0.1893769E-002  0.4170532E+02  0.7818608E-02  0.1496024E+00
         -1   -1    0    0  501    0 -0.00000000000E+00  0.00000000000E+00  0.32781104887E+00  0.32784979085E+00  0.50400000000E-02 0. -1.
          1   -1    0    0    0  501  0.00000000000E+00 -0.00000000000E+00 -0.13263973673E+04  0.13263973673E+04  0.50400000000E-02 0. -1.
          2    1    1    2    0  502  0.20836025114E+02 -0.52396057320E+00 -0.64244447544E+03  0.64278248149E+03  0.25500000000E-02 0. -1.
         -2    1    1    2  502    0 -0.20836025114E+02  0.52396057320E+00 -0.68362508080E+03  0.68394273560E+03  0.25500000000E-02 0. -1.
<mgrwt>
<rscale>  0 0.41705319E+02</rscale>
<asrwt>0</asrwt>
<pdfrwt beam="2">  1        1 0.20405684E+00 0.41705319E+02</pdfrwt>
<pdfrwt beam="1">  1       -1 0.50436512E-04 0.41705319E+02</pdfrwt>
<totfact> 0.88220423E+05</totfact>
</mgrwt>
</event>
<event>
 4    1  0.1893769E-002  0.3099794E+03  0.7818608E-02  0.1080356E+00
          1   -1    0    0    0  501  0.00000000000E+00  0.00000000000E+00  0.75935684587E+03  0.75935684589E+03  0.50400000000E-02 0. -1.
         -1   -1    0    0  501    0 -0.00000000000E+00 -0.00000000000E+00 -0.31634401530E+02  0.31634401931E+02  0.50400000000E-02 0. -1.
          2    1    1    2    0  502  0.79106489104E+02  0.44543952758E+02  0.43315748114E+02  0.10058953418E+03  0.25500000000E-02 0.  1.
         -2    1    1    2  502    0 -0.79106489104E+02 -0.44543952758E+02  0.68440669623E+03  0.69040171364E+03  0.25500000000E-02 0.  1.
<mgrwt>
<rscale>  0 0.30997935E+03</rscale>
<asrwt>0</asrwt>
<pdfrwt beam="1">  1        1 0.11682412E+00 0.30997935E+03</pdfrwt>
<pdfrwt beam="2">  1       -1 0.48668313E-02 0.30997935E+03</pdfrwt>
<totfact> 0.45809548E+03</totfact>
</mgrwt>
</event>
<event>
 4    1  0.1893769E-002  0.5005549E+02  0.7818608E-02  0.1445042E+00
         -1   -1    0    0  501    0 -0.00000000000E+00  0.00000000000E+00  0.38333092688E+03  0.38333092691E+03  0.50400000000E-02 0. -1.
          1   -1    0    0    0  501  0.00000000000E+00 -0.00000000000E+00 -0.16340621698E+01  0.16340699423E+01  0.50400000000E-02 0. -1.
          2    1    1    2    0  502 -0.18772044254E+02 -0.13592423079E+02  0.26350253130E+03  0.26451980572E+03  0.25500000000E-02 0.  1.
         -2    1    1    2  502    0  0.18772044254E+02  0.13592423079E+02  0.11819433341E+03  0.12044519113E+03  0.25500000000E-02 0.  1.
<mgrwt>
<rscale>  0 0.50055492E+02</rscale>
<asrwt>0</asrwt>
<pdfrwt beam="2">  1        1 0.25139481E-03 0.50055492E+02</pdfrwt>
<pdfrwt beam="1">  1       -1 0.58973983E-01 0.50055492E+02</pdfrwt>
<totfact> 0.25153130E+05</totfact>
</mgrwt>
</event>
<event>
 4    1  0.1893769E-002  0.4752525E+02  0.7818608E-02  0.1459166E+00
          1   -1    0    0    0  501  0.00000000000E+00  0.00000000000E+00  0.26447820006E+02  0.26447820486E+02  0.50400000000E-02 0. -1.
         -1   -1    0    0  501    0 -0.00000000000E+00 -0.00000000000E+00 -0.21350053277E+02  0.21350053872E+02  0.50400000000E-02 0. -1.
          2    1    1    2    0  502 -0.17936950583E+02 -0.12923094194E+02  0.11312179284E+02  0.24833565318E+02  0.25500000000E-02 0. -1.
         -2    1    1    2  502    0  0.17936950583E+02  0.12923094194E+02 -0.62144125549E+01  0.22964309040E+02  0.25500000000E-02 0. -1.
<mgrwt>
<rscale>  0 0.47525252E+02</rscale>
<asrwt>0</asrwt>
<pdfrwt beam="1">  1        1 0.40688955E-02 0.47525252E+02</pdfrwt>
<pdfrwt beam="2">  1       -1 0.32846237E-02 0.47525252E+02</pdfrwt>
<totfact> 0.50124151E+05</totfact>
</mgrwt>
</event>
<event>
 4    1  0.1893769E-002  0.7924723E+02  0.7818608E-02  0.1331201E+00
         -1   -1    0    0  501    0 -0.00000000000E+00  0.00000000000E+00  0.12098716351E+01  0.12098821327E+01  0.50400000000E-02 0. -1.
          1   -1    0    0    0  501  0.00000000000E+00 -0.00000000000E+00 -0.12976783528E+04  0.12976783528E+04  0.50400000000E-02 0. -1.
          2    1    1    2    0  502 -0.47874042975E+01  0.37231032430E+02 -0.85617967494E+03  0.85700216150E+03  0.25500000000E-02 0.  1.
         -2    1    1    2  502    0  0.47874042975E+01 -0.37231032430E+02 -0.44028880624E+03  0.44188607346E+03  0.25500000000E-02 0.  1.
<mgrwt>
<rscale>  0 0.79247235E+02</rscale>
<asrwt>0</asrwt>
<pdfrwt beam="2">  1        1 0.19964171E+00 0.79247235E+02</pdfrwt>
<pdfrwt beam="1">  1       -1 0.18613594E-03 0.79247235E+02</pdfrwt>
<totfact> 0.17664500E+05</totfact>
</mgrwt>
</event>
<event>
 4    1  0.1893769E-002  0.4873906E+02  0.7818608E-02  0.1452264E+00
          1   -1    0    0    0  501  0.00000000000E+00  0.00000000000E+00  0.53619255096E+03  0.53619255098E+03  0.50400000000E-02 0. -1.
         -1   -1    0    0  501    0 -0.00000000000E+00 -0.00000000000E+00 -0.11075704193E+01  0.11075818865E+01  0.50400000000E-02 0. -1.
          2    1    1    2    0  502 -0.20256212102E+02  0.59126838399E+01  0.13315793571E+03  0.13481954535E+03  0.25500000000E-02 0.  1.
         -2    1    1    2  502    0  0.20256212102E+02 -0.59126838399E+01  0.40192704483E+03  0.40248058752E+03  0.25500000000E-02 0.  1.
<mgrwt>
<rscale>  0 0.48739064E+02</rscale>
<asrwt>0</asrwt>
<pdfrwt beam="1">  1        1 0.82491282E-01 0.48739064E+02</pdfrwt>
<pdfrwt beam="2">  1       -1 0.17039609E-03 0.48739064E+02</pdfrwt>
<totfact> 0.69899112E+05</totfact>
</mgrwt>
</event>
<event>
 4    1  0.1893769E-002  0.4535547E+02  0.7818608E-02  0.1472135E+00
         -1   -1    0    0  501    0 -0.00000000000E+00  0.00000000000E+00  0.21729020136E+00  0.21734864436E+00  0.50400000000E-02 0. -1.
          1   -1    0    0    0  501  0.00000000000E+00 -0.00000000000E+00 -0.23664686197E+04  0.23664686197E+04  0.50400000000E-02 0. -1.
          2    1    1    2    0  502  0.18356139821E+02 -0.11938847385E+02 -0.87532220603E+03  0.87559605316E+03  0.25500000000E-02 0. -1.
         -2    1    1    2  502    0 -0.18356139821E+02  0.11938847385E+02 -0.14909291235E+04  0.14910899152E+04  0.25500000000E-02 0. -1.
<mgrwt>
<rscale>  0 0.45355467E+02</rscale>
<asrwt>0</asrwt>
<pdfrwt beam="2">  1        1 0.36405146E+00 0.45355467E+02</pdfrwt>
<pdfrwt beam="1">  1       -1 0.33435653E-04 0.45355467E+02</pdfrwt>
<totfact> 0.35840773E+05</totfact>
</mgrwt>
</event>
<event>
 4    1  0.1893769E-002  0.4732473E+02  0.7818608E-02  0.1460330E+00
          1   -1    0    0    0  501  0.00000000000E+00  0.00000000000E+00  0.32113016341E+02  0.32113016736E+02  0.50400000000E-02 0.  1.
         -1   -1    0    0  501    0 -0.00000000000E+00 -0.00000000000E+00 -0.17435531517E+02  0.17435532246E+02  0.50400000000E-02 0.  1.
          2    1    1    2    0  502  0.16485800402E+01  0.22952848873E+02  0.15701716472E+01  0.23065483586E+02  0.25500000000E-02 0. -1.
         -2    1    1    2  502    0 -0.16485800402E+01 -0.22952848873E+02  0.13107313176E+02  0.26483065396E+02  0.25500000000E-02 0. -1.
<mgrwt>
<rscale>  0 0.47324731E+02</rscale>
<asrwt>0</asrwt>
<pdfrwt beam="1">  1        1 0.49404642E-02 0.47324731E+02</pdfrwt>
<pdfrwt beam="2">  1       -1 0.26823895E-02 0.47324731E+02</pdfrwt>
<totfact> 0.51521175E+05</totfact>
</mgrwt>
</event>
<event>
 4    1  0.1893769E-002  0.5036515E+02  0.7818608E-02  0.1443382E+00
         -1   -1    0    0  501    0 -0.00000000000E+00  0.00000000000E+00  0.17155054785E+04  0.17155054785E+04  0.50400000000E-02 0.  1.
          1   -1    0    0    0  501  0.00000000000E+00 -0.00000000000E+00 -0.36964771459E+00  0.36968207220E+00  0.50400000000E-02 0.  1.
          2    1    1    2    0  502 -0.10577584822E+01  0.21169533071E+02  0.13208197419E+04  0.13209898026E+04  0.25500000000E-02 0.  1.
         -2    1    1    2  502    0  0.10577584822E+01 -0.21169533071E+02  0.39431608888E+03  0.39488535797E+03  0.25500000000E-02 0.  1.
<mgrwt>
<rscale>  0 0.50365153E+02</rscale>
<asrwt>0</asrwt>
<pdfrwt beam="2">  1        1 0.56871361E-04 0.50365153E+02</pdfrwt>
<pdfrwt beam="1">  1       -1 0.26392467E+00 0.50365153E+02</pdfrwt>
<totfact> 0.47841596E+04</totfact>
</mgrwt>
</event>
<event>
 4    1  0.1893769E-002  0.4412103E+02  0.7818608E-02  0.1479905E+00
         -1   -1    0    0  501    0 -0.00000000000E+00  0.00000000000E+00  0.55094092963E+02  0.55094093193E+02  0.50400000000E-02 0.  1.
          1   -1    0    0    0  501  0.00000000000E+00 -0.00000000000E+00 -0.88333660808E+01  0.88333675187E+01  0.50400000000E-02 0.  1.
          2    1    1    2    0  502  0.21646602991E+02  0.14546276287E+01  0.17339252135E+02  0.27773027089E+02  0.25500000000E-02 0. -1.
         -2    1    1    2  502    0 -0.21646602991E+02 -0.14546276287E+01  0.28921474747E+02  0.36154433623E+02  0.25500000000E-02 0. -1.
<mgrwt>
<rscale>  0 0.44121031E+02</rscale>
<asrwt>0</asrwt>
<pdfrwt beam="2">  1        1 0.13589796E-02 0.44121031E+02</pdfrwt>
<pdfrwt beam="1">  1       -1 0.84760142E-02 0.44121031E+02</pdfrwt>
<totfact> 0.54902078E+05</totfact>
</mgrwt>
</event>
<event>
 4    1  0.1893769E-002  0.5277336E+02  0.7818608E-02  0.1430932E+00
          1   -1    0    0    0  501  0.00000000000E+00  0.00000000000E+00  0.10936220078E+03  0.10936220089E+03  0.50400000000E-02 0.  1.
         -1   -1    0    0  501    0 -0.00000000000E+00 -0.00000000000E+00 -0.63665213138E+01  0.63665233088E+01  0.50400000000E-02 0.  1.
          2    1    1    2    0  502 -0.23431666032E+02 -0.11958176075E+02  0.56000551266E+02  0.61871663115E+02  0.25500000000E-02 0. -1.
         -2    1    1    2  502    0  0.23431666032E+02  0.11958176075E+02  0.46995128197E+02  0.53857061086E+02  0.25500000000E-02 0. -1.
<mgrwt>
<rscale>  0 0.52773361E+02</rscale>
<asrwt>0</asrwt>
<pdfrwt beam="1">  1        1 0.16824953E-01 0.52773361E+02</pdfrwt>
<pdfrwt beam="2">  1       -1 0.97946503E-03 0.52773361E+02</pdfrwt>
<totfact> 0.44589423E+05</totfact>
</mgrwt>
</event>
<event>
 4    1  0.1893769E-002  0.1377168E+03  0.7818608E-02  0.1216435E+00
         -1   -1    0    0  501    0 -0.00000000000E+00  0.00000000000E+00  0.25227548383E+02  0.25227548887E+02  0.50400000000E-02 0. -1.
          1   -1    0    0    0  501  0.00000000000E+00 -0.00000000000E+00 -0.18794856187E+03  0.18794856193E+03  0.50400000000E-02 0. -1.
          2    1    1    2    0  502  0.62843992844E+02 -0.62895932401E+01 -0.38896531045E+02  0.74174568105E+02  0.25500000000E-02 0. -1.
         -2    1    1    2  502    0 -0.62843992844E+02  0.62895932401E+01 -0.12382448244E+03  0.13900154271E+03  0.25500000000E-02 0. -1.
<mgrwt>
<rscale>  0 0.13771683E+03</rscale>
<asrwt>0</asrwt>
<pdfrwt beam="2">  1        1 0.28915163E-01 0.13771683E+03</pdfrwt>
<pdfrwt beam="1">  1       -1 0.38811615E-02 0.13771683E+03</pdfrwt>
<totfact> 0.37605917E+04</totfact>
</mgrwt>
</event>
<event>
 4    1  0.1893769E-002  0.4445176E+02  0.7818608E-02  0.1477794E+00
          1   -1    0    0    0  501  0.00000000000E+00  0.00000000000E+00  0.53259071972E+03  0.53259071974E+03  0.50400000000E-02 0.  1.
         -1   -1    0    0  501    0 -0.00000000000E+00 -0.00000000000E+00 -0.92751527489E+00  0.92752896815E+00  0.50400000000E-02 0.  1.
          2    1    1    2    0  502  0.16869274748E+02 -0.12925753362E+02  0.18773236448E+03  0.18893143785E+03  0.25500000000E-02 0. -1.
         -2    1    1    2  502    0 -0.16869274748E+02  0.12925753362E+02  0.34393083997E+03  0.34458681086E+03  0.25500000000E-02 0. -1.
<mgrwt>
<rscale>  0 0.44451758E+02</rscale>
<asrwt>0</asrwt>
<pdfrwt beam="1">  1        1 0.81937238E-01 0.44451758E+02</pdfrwt>
<pdfrwt beam="2">  1       -1 0.14269536E-03 0.44451758E+02</pdfrwt>
<totfact> 0.87622495E+05</totfact>
</mgrwt>
</event>
<event>
 4    1  0.1893769E-002  0.4404757E+02  0.7818608E-02  0.1480377E+00
         -1   -1    0    0  501    0 -0.00000000000E+00  0.00000000000E+00  0.47984142266E+01  0.47984168735E+01  0.50400000000E-02 0.  1.
          1   -1    0    0    0  501  0.00000000000E+00 -0.00000000000E+00 -0.10108483026E+03  0.10108483039E+03  0.50400000000E-02 0.  1.
          2    1    1    2    0  502 -0.18743797129E+02  0.11381849239E+02 -0.43234074328E+02  0.48477434053E+02  0.25500000000E-02 0. -1.
         -2    1    1    2  502    0  0.18743797129E+02 -0.11381849239E+02 -0.53052341708E+02  0.57405813209E+02  0.25500000000E-02 0. -1.
<mgrwt>
<rscale>  0 0.44047567E+02</rscale>
<asrwt>0</asrwt>
<pdfrwt beam="2">  1        1 0.15551511E-01 0.44047567E+02</pdfrwt>
<pdfrwt beam="1">  1       -1 0.73821786E-03 0.44047567E+02</pdfrwt>
<totfact> 0.69453051E+05</totfact>
</mgrwt>
</event>
<event>
 4    1  0.1893769E-002  0.6181256E+02  0.7818608E-02  0.1390379E+00
          1   -1    0    0    0  501  0.00000000000E+00  0.00000000000E+00  0.67978259160E+03  0.67978259162E+03  0.50400000000E-02 0. -1.
         -1   -1    0    0  501    0 -0.00000000000E+00 -0.00000000000E+00 -0.14051478983E+01  0.14051569370E+01  0.50400000000E-02 0. -1.
          2    1    1    2    0  502  0.43381678607E+01 -0.20071030142E+02  0.59373714645E+03  0.59409213513E+03  0.25500000000E-02 0. -1.
         -2    1    1    2  502    0 -0.43381678607E+01  0.20071030142E+02  0.84640297258E+02  0.87095613425E+02  0.25500000000E-02 0. -1.
<mgrwt>
<rscale>  0 0.61812561E+02</rscale>
<asrwt>0</asrwt>
<pdfrwt beam="1">  1        1 0.10458206E+00 0.61812561E+02</pdfrwt>
<pdfrwt beam="2">  1       -1 0.21617705E-03 0.61812561E+02</pdfrwt>
<totfact> 0.38967835E+05</totfact>
</mgrwt>
</event>
<event>
 4    1  0.1893769E-002  0.9765210E+02  0.7818608E-02  0.1285312E+00
         -1   -1    0    0  501    0 -0.00000000000E+00  0.00000000000E+00  0.91265059725E+01  0.91265073641E+01  0.50400000000E-02 0.  1.
          1   -1    0    0    0  501  0.00000000000E+00 -0.00000000000E+00 -0.26121528228E+03  0.26121528233E+03  0.50400000000E-02 0.  1.
          2    1    1    2    0  502  0.24657172516E+02  0.41174609044E+02 -0.10118121776E+03  0.11198644302E+03  0.25500000000E-02 0.  1.
         -2    1    1    2  502    0 -0.24657172516E+02 -0.41174609044E+02 -0.15090755854E+03  0.15835534667E+03  0.25500000000E-02 0.  1.
<mgrwt>
<rscale>  0 0.97652097E+02</rscale>
<asrwt>0</asrwt>
<pdfrwt beam="2">  1        1 0.40186961E-01 0.97652097E+02</pdfrwt>
<pdfrwt beam="1">  1       -1 0.14040782E-02 0.97652097E+02</pdfrwt>
<totfact> 0.10377715E+05</totfact>
</mgrwt>
</event>
<event>
 4    1  0.1893769E-002  0.1395924E+03  0.7818608E-02  0.1213878E+00
          1   -1    0    0    0  501  0.00000000000E+00  0.00000000000E+00  0.22162715819E+03  0.22162715825E+03  0.50400000000E-02 0. -1.
         -1   -1    0    0  501    0 -0.00000000000E+00 -0.00000000000E+00 -0.21980662671E+02  0.21980663249E+02  0.50400000000E-02 0. -1.
          2    1    1    2    0  502 -0.31270782091E+02  0.50270862276E+02  0.35312414348E+02  0.68934664866E+02  0.25500000000E-02 0.  1.
         -2    1    1    2  502    0  0.31270782091E+02 -0.50270862276E+02  0.16433408117E+03  0.17467315663E+03  0.25500000000E-02 0.  1.
<mgrwt>
<rscale>  0 0.13959243E+03</rscale>
<asrwt>0</asrwt>
<pdfrwt beam="1">  1        1 0.34096485E-01 0.13959243E+03</pdfrwt>
<pdfrwt beam="2">  1       -1 0.33816406E-02 0.13959243E+03</pdfrwt>
<totfact> 0.37547279E+04</totfact>
</mgrwt>
</event>
<event>
 4    1  0.1893769E-002  0.1265921E+03  0.7818608E-02  0.1232602E+00
         -1   -1    0    0  501    0 -0.00000000000E+00  0.00000000000E+00  0.38122799098E+02  0.38122799431E+02  0.50400000000E-02 0. -1.
          1   -1    0    0    0  501  0.00000000000E+00 -0.00000000000E+00 -0.10509177925E+03  0.10509177937E+03  0.50400000000E-02 0. -1.
          2    1    1    2    0  502  0.49833855998E+02 -0.18545253001E+02 -0.72330567438E+02  0.89772215105E+02  0.25500000000E-02 0. -1.
         -2    1    1    2  502    0 -0.49833855998E+02  0.18545253001E+02  0.53615872875E+01  0.53442363695E+02  0.25500000000E-02 0. -1.
<mgrwt>
<rscale>  0 0.12659215E+03</rscale>
<asrwt>0</asrwt>
<pdfrwt beam="2">  1        1 0.16167966E-01 0.12659215E+03</pdfrwt>
<pdfrwt beam="1">  1       -1 0.58650461E-02 0.12659215E+03</pdfrwt>
<totfact> 0.42233579E+04</totfact>
</mgrwt>
</event>
<event>
 4    1  0.1893769E-002  0.9703364E+02  0.7818608E-02  0.1286660E+00
         -1   -1    0    0  501    0 -0.00000000000E+00  0.00000000000E+00  0.15124982089E+03  0.15124982098E+03  0.50400000000E-02 0. -1.
          1   -1    0    0    0  501  0.00000000000E+00 -0.00000000000E+00 -0.15562874441E+02  0.15562875257E+02  0.50400000000E-02 0. -1.
          2    1    1    2    0  502 -0.19589284467E+02 -0.36747027565E+02  0.25044650580E+02  0.48593401095E+02  0.25500000000E-02 0.  1.
         -2    1    1    2  502    0  0.19589284467E+02  0.36747027565E+02  0.11064229587E+03  0.11821929514E+03  0.25500000000E-02 0.  1.
<mgrwt>
<rscale>  0 0.97033645E+02</rscale>
<asrwt>0</asrwt>
<pdfrwt beam="2">  1        1 0.23942886E-02 0.97033645E+02</pdfrwt>
<pdfrwt beam="1">  1       -1 0.23269202E-01 0.97033645E+02</pdfrwt>
<totfact> 0.63481542E+04</totfact>
</mgrwt>
</event>
<event>
 4    1  0.1893769E-002  0.4206458E+02  0.7818608E-02  0.1493546E+00
         -1   -1    0    0  501    0 -0.00000000000E+00  0.00000000000E+00  0.64770346092E+01  0.64770365701E+01  0.50400000000E-02 0. -1.
          1   -1    0    0    0  501  0.00000000000E+00 -0.00000000000E+00 -0.68296234460E+02  0.68296234646E+02  0.50400000000E-02 0. -1.
          2    1    1    2    0  502 -0.97356303673E+01 -0.18069248922E+02 -0.22748792112E+02  0.30639644324E+02  0.25500000000E-02 0.  1.
         -2    1    1    2  502    0  0.97356303673E+01  0.18069248922E+02 -0.39070407739E+02  0.44133626892E+02  0.25500000000E-02 0.  1.
<mgrwt>
<rscale>  0 0.42064577E+02</rscale>
<asrwt>0</asrwt>
<pdfrwt beam="2">  1        1 0.10507113E-01 0.42064577E+02</pdfrwt>
<pdfrwt beam="1">  1       -1 0.99646708E-03 0.42064577E+02</pdfrwt>
<totfact> 0.74352535E+05</totfact>
</mgrwt>
</event>
<event>
 4    1  0.1893769E-002  0.4841079E+02  0.7818608E-02  0.1454107E+00
         -1   -1    0    0  501    0 -0.00000000000E+00  0.00000000000E+00  0.15064781842E+03  0.15064781850E+03  0.50400000000E-02 0. -1.
          1   -1    0    0    0  501  0.00000000000E+00 -0.00000000000E+00 -0.38892089083E+01  0.38892121739E+01  0.50400000000E-02 0. -1.
          2    1    1    2    0  502 -0.12819110922E+02  0.16036267274E+02  0.32448147760E+02  0.38397575086E+02  0.25500000000E-02 0. -1.
         -2    1    1    2  502    0  0.12819110922E+02 -0.16036267274E+02  0.11431046175E+03  0.11613945559E+03  0.25500000000E-02 0. -1.
<mgrwt>
<rscale>  0 0.48410788E+02</rscale>
<asrwt>0</asrwt>
<pdfrwt beam="2">  1        1 0.59833999E-03 0.48410788E+02</pdfrwt>
<pdfrwt beam="1">  1       -1 0.23176591E-01 0.48410788E+02</pdfrwt>
<totfact> 0.37257184E+05</totfact>
</mgrwt>
</event>
<event>
 4    1  0.1893769E-002  0.4321781E+02  0.7818608E-02  0.1485784E+00
         -1   -1    0    0  501    0 -0.00000000000E+00  0.00000000000E+00  0.33215580407E+00  0.33219403935E+00  0.50400000000E-02 0.  1.
          1   -1    0    0    0  501  0.00000000000E+00 -0.00000000000E+00 -0.14057195596E+04  0.14057195596E+04  0.50400000000E-02 0.  1.
          2    1    1    2    0  502 -0.96538942161E+01 -0.19235768396E+02 -0.63984032026E+03  0.64020219298E+03  0.25500000000E-02 0. -1.
         -2    1    1    2  502    0  0.96538942161E+01  0.19235768396E+02 -0.76554708355E+03  0.76584956068E+03  0.25500000000E-02 0. -1.
<mgrwt>
<rscale>  0 0.43217811E+02</rscale>
<asrwt>0</asrwt>
<pdfrwt beam="2">  1        1 0.21625979E+00 0.43217811E+02</pdfrwt>
<pdfrwt beam="1">  1       -1 0.51104960E-04 0.43217811E+02</pdfrwt>
<totfact> 0.77918042E+05</totfact>
</mgrwt>
</event>
<event>
 4    1  0.1893769E-002  0.6350306E+02  0.7818608E-02  0.1383692E+00
          1   -1    0    0    0  501  0.00000000000E+00  0.00000000000E+00  0.13211686959E+04  0.13211686959E+04  0.50400000000E-02 0. -1.
         -1   -1    0    0  501    0 -0.00000000000E+00 -0.00000000000E+00 -0.76307341446E+00  0.76309005855E+00  0.50400000000E-02 0. -1.
          2    1    1    2    0  502  0.16241333754E+02  0.27082846301E+02  0.59148137521E+03  0.59232379550E+03  0.25500000000E-02 0. -1.
         -2    1    1    2  502    0 -0.16241333754E+02 -0.27082846301E+02  0.72892424731E+03  0.72960799050E+03  0.25500000000E-02 0. -1.
<mgrwt>
<rscale>  0 0.63503062E+02</rscale>
<asrwt>0</asrwt>
<pdfrwt beam="1">  1        1 0.20325569E+00 0.63503062E+02</pdfrwt>
<pdfrwt beam="2">  1       -1 0.11739779E-03 0.63503062E+02</pdfrwt>
<totfact> 0.30955923E+05</totfact>
</mgrwt>
</event>
<event>
 4    1  0.1893769E-002  0.8698780E+02  0.7818608E-02  0.1310315E+00
         -1   -1    0    0  501    0 -0.00000000000E+00  0.00000000000E+00  0.41667187623E+02  0.41667187927E+02  0.50400000000E-02 0.  1.
          1   -1    0    0    0  501  0.00000000000E+00 -0.00000000000E+00 -0.45400696453E+02  0.45400696732E+02  0.50400000000E-02 0.  1.
          2    1    1    2    0  502 -0.37353090146E+02 -0.11310353130E+02  0.17348365228E+02  0.42709989627E+02  0.25500000000E-02 0.  1.
         -2    1    1    2  502    0  0.37353090146E+02  0.11310353130E+02 -0.21081874058E+02  0.44357895032E+02  0.25500000000E-02 0.  1.
<mgrwt>
<rscale>  0 0.86987801E+02</rscale>
<asrwt>0</asrwt>
<pdfrwt beam="2">  1        1 0.69847226E-02 0.86987801E+02</pdfrwt>
<pdfrwt beam="1">  1       -1 0.64103366E-02 0.86987801E+02</pdfrwt>
<totfact> 0.10539504E+05</totfact>
</mgrwt>
</event>
<event>
 4    1  0.1893769E-002  0.8193038E+02  0.7818608E-02  0.1323661E+00
         -1   -1    0    0  501    0 -0.00000000000E+00  0.00000000000E+00  0.12258309328E+01  0.12258412937E+01  0.50400000000E-02 0.  1.
          1   -1    0    0    0  501  0.00000000000E+00 -0.00000000000E+00 -0.13689814419E+04  0.13689814419E+04  0.50400000000E-02 0.  1.
          2    1    1    2    0  502  0.40579029133E+02  0.23063752937E+01 -0.59832337279E+03  0.59970228898E+03  0.25500000000E-02 0.  1.
         -2    1    1    2  502    0 -0.40579029133E+02 -0.23063752937E+01 -0.76943223817E+03  0.77050499422E+03  0.25500000000E-02 0.  1.
<mgrwt>
<rscale>  0 0.81930383E+02</rscale>
<asrwt>0</asrwt>
<pdfrwt beam="2">  1        1 0.21061131E+00 0.81930383E+02</pdfrwt>
<pdfrwt beam="1">  1       -1 0.18859127E-03 0.81930383E+02</pdfrwt>
<totfact> 0.15666486E+05</totfact>
</mgrwt>
</event>
<event>
 4    1  0.1893769E-002  0.4312981E+02  0.7818608E-02  0.1486366E+00
         -1   -1    0    0  501    0 -0.00000000000E+00  0.00000000000E+00  0.31735498424E+01  0.31735538444E+01  0.50400000000E-02 0.  1.
          1   -1    0    0    0  501  0.00000000000E+00 -0.00000000000E+00 -0.14653770705E+03  0.14653770714E+03  0.50400000000E-02 0.  1.
          2    1    1    2    0  502 -0.14637772396E+02  0.15713054028E+02 -0.64844148127E+02  0.68307598409E+02  0.25500000000E-02 0.  1.
         -2    1    1    2  502    0  0.14637772396E+02 -0.15713054028E+02 -0.78520009084E+02  0.81403662576E+02  0.25500000000E-02 0.  1.
<mgrwt>
<rscale>  0 0.43129805E+02</rscale>
<asrwt>0</asrwt>
<pdfrwt beam="2">  1        1 0.22544258E-01 0.43129805E+02</pdfrwt>
<pdfrwt beam="1">  1       -1 0.48823887E-03 0.43129805E+02</pdfrwt>
<totfact> 0.77134971E+05</totfact>
</mgrwt>
</event>
<event>
 4    1  0.1893769E-002  0.1039721E+03  0.7818608E-02  0.1272158E+00
         -1   -1    0    0  501    0 -0.00000000000E+00  0.00000000000E+00  0.18117100470E+03  0.18117100477E+03  0.50400000000E-02 0. -1.
          1   -1    0    0    0  501  0.00000000000E+00 -0.00000000000E+00 -0.14917107520E+02  0.14917108371E+02  0.50400000000E-02 0. -1.
          2    1    1    2    0  502 -0.46603780583E+01 -0.36139258829E+02  0.15305502349E+03  0.15733278544E+03  0.25500000000E-02 0.  1.
         -2    1    1    2  502    0  0.46603780583E+01  0.36139258829E+02  0.13198873696E+02  0.38755327707E+02  0.25500000000E-02 0.  1.
<mgrwt>
<rscale>  0 0.10397206E+03</rscale>
<asrwt>0</asrwt>
<pdfrwt beam="2">  1        1 0.22949397E-02 0.10397206E+03</pdfrwt>
<pdfrwt beam="1">  1       -1 0.27872463E-01 0.10397206E+03</pdfrwt>
<totfact> 0.50626845E+04</totfact>
</mgrwt>
</event>
<event>
 4    1  0.1893769E-002  0.4653994E+02  0.7818608E-02  0.1464951E+00
          1   -1    0    0    0  501  0.00000000000E+00  0.00000000000E+00  0.20231467372E+02  0.20231468000E+02  0.50400000000E-02 0. -1.
         -1   -1    0    0  501    0 -0.00000000000E+00 -0.00000000000E+00 -0.26764812364E+02  0.26764812839E+02  0.50400000000E-02 0. -1.
          2    1    1    2    0  502  0.12861083894E+02 -0.19322396264E+02 -0.15985145595E+01  0.23266235871E+02  0.25500000000E-02 0.  1.
         -2    1    1    2  502    0 -0.12861083894E+02  0.19322396264E+02 -0.49348304322E+01  0.23730044968E+02  0.25500000000E-02 0.  1.
<mgrwt>
<rscale>  0 0.46539938E+02</rscale>
<asrwt>0</asrwt>
<pdfrwt beam="1">  1        1 0.31125335E-02 0.46539938E+02</pdfrwt>
<pdfrwt beam="2">  1       -1 0.41176635E-02 0.46539938E+02</pdfrwt>
<totfact> 0.51710380E+05</totfact>
</mgrwt>
</event>
<event>
 4    1  0.1893769E-002  0.9686070E+02  0.7818608E-02  0.1287039E+00
          1   -1    0    0    0  501  0.00000000000E+00  0.00000000000E+00  0.51712368090E+02  0.51712368336E+02  0.50400000000E-02 0. -1.
         -1   -1    0    0  501    0 -0.00000000000E+00 -0.00000000000E+00 -0.45356629287E+02  0.45356629567E+02  0.50400000000E-02 0. -1.
          2    1    1    2    0  502 -0.35140619776E+02 -0.33152144686E+02  0.65867830706E+01  0.48757702707E+02  0.25500000000E-02 0. -1.
         -2    1    1    2  502    0  0.35140619776E+02  0.33152144686E+02 -0.23104426751E+00  0.48311295196E+02  0.25500000000E-02 0. -1.
<mgrwt>
<rscale>  0 0.96860699E+02</rscale>
<asrwt>0</asrwt>
<pdfrwt beam="1">  1        1 0.79557490E-02 0.96860699E+02</pdfrwt>
<pdfrwt beam="2">  1       -1 0.69779430E-02 0.96860699E+02</pdfrwt>
<totfact> 0.79526991E+04</totfact>
</mgrwt>
</event>
<event>
 4    1  0.1893769E-002  0.4468611E+02  0.7818608E-02  0.1476311E+00
         -1   -1    0    0  501    0 -0.00000000000E+00  0.00000000000E+00  0.16203484838E+03  0.16203484846E+03  0.50400000000E-02 0.  1.
          1   -1    0    0    0  501  0.00000000000E+00 -0.00000000000E+00 -0.30808918693E+01  0.30808959917E+01  0.50400000000E-02 0.  1.
          2    1    1    2    0  502 -0.80052570568E+01 -0.18826275830E+02  0.11267032262E+03  0.11451250765E+03  0.25500000000E-02 0. -1.
         -2    1    1    2  502    0  0.80052570568E+01  0.18826275830E+02  0.46283633890E+02  0.50603236801E+02  0.25500000000E-02 0. -1.
<mgrwt>
<rscale>  0 0.44686114E+02</rscale>
<asrwt>0</asrwt>
<pdfrwt beam="2">  1        1 0.47398362E-03 0.44686114E+02</pdfrwt>
<pdfrwt beam="1">  1       -1 0.24928442E-01 0.44686114E+02</pdfrwt>
<totfact> 0.44614697E+05</totfact>
</mgrwt>
</event>
<event>
 4    1  0.1893769E-002  0.1572653E+03  0.7818608E-02  0.1191819E+00
         -1   -1    0    0  501    0 -0.00000000000E+00  0.00000000000E+00  0.48473045354E+02  0.48473045616E+02  0.50400000000E-02 0.  1.
          1   -1    0    0    0  501  0.00000000000E+00 -0.00000000000E+00 -0.12755743063E+03  0.12755743073E+03  0.50400000000E-02 0.  1.
          2    1    1    2    0  502  0.25844258339E+02 -0.48363832887E+02  0.23539404107E+02  0.59674865503E+02  0.25500000000E-02 0. -1.
         -2    1    1    2  502    0 -0.25844258339E+02  0.48363832887E+02 -0.10262378938E+03  0.11635561084E+03  0.25500000000E-02 0. -1.
<mgrwt>
<rscale>  0 0.15726534E+03</rscale>
<asrwt>0</asrwt>
<pdfrwt beam="2">  1        1 0.19624220E-01 0.15726534E+03</pdfrwt>
<pdfrwt beam="1">  1       -1 0.74573917E-02 0.15726534E+03</pdfrwt>
<totfact> 0.23546631E+04</totfact>
</mgrwt>
</event>
<event>
 4    1  0.1893769E-002  0.5606252E+02  0.7818608E-02  0.1415140E+00
          1   -1    0    0    0  501  0.00000000000E+00  0.00000000000E+00  0.49791904966E+01  0.49791930474E+01  0.50400000000E-02 0.  1.
         -1   -1    0    0  501    0 -0.00000000000E+00 -0.00000000000E+00 -0.15780706675E+03  0.15780706684E+03  0.50400000000E-02 0.  1.
          2    1    1    2    0  502  0.18169274565E+02 -0.21040168465E+02 -0.65968674449E+02  0.71586851043E+02  0.25500000000E-02 0.  1.
         -2    1    1    2  502    0 -0.18169274565E+02  0.21040168465E+02 -0.86859201810E+02  0.91199408840E+02  0.25500000000E-02 0.  1.
<mgrwt>
<rscale>  0 0.56062524E+02</rscale>
<asrwt>0</asrwt>
<pdfrwt beam="1">  1        1 0.76602963E-03 0.56062524E+02</pdfrwt>
<pdfrwt beam="2">  1       -1 0.24278007E-01 0.56062524E+02</pdfrwt>
<totfact> 0.25593681E+05</totfact>
</mgrwt>
</event>
<event>
 4    1  0.1893769E-002  0.5777343E+02  0.7818608E-02  0.1407420E+00
          1   -1    0    0    0  501  0.00000000000E+00  0.00000000000E+00  0.14621830005E+04  0.14621830005E+04  0.50400000000E-02 0. -1.
         -1   -1    0    0  501    0 -0.00000000000E+00 -0.00000000000E+00 -0.57067131224E+00  0.57069356770E+00  0.50400000000E-02 0. -1.
          2    1    1    2    0  502  0.24829037397E+02  0.13570855954E+02  0.87798862824E+03  0.87844446640E+03  0.25500000000E-02 0. -1.
         -2    1    1    2  502    0 -0.24829037397E+02 -0.13570855954E+02  0.58362370093E+03  0.58430922766E+03  0.25500000000E-02 0. -1.
<mgrwt>
<rscale>  0 0.57773426E+02</rscale>
<asrwt>0</asrwt>
<pdfrwt beam="1">  1        1 0.22495190E+00 0.57773426E+02</pdfrwt>
<pdfrwt beam="2">  1       -1 0.87797038E-04 0.57773426E+02</pdfrwt>
<totfact> 0.36750823E+05</totfact>
</mgrwt>
</event>
<event>
 4    1  0.1893769E-002  0.4567633E+02  0.7818608E-02  0.1470163E+00
          1   -1    0    0    0  501  0.00000000000E+00  0.00000000000E+00  0.40365633399E+03  0.40365633403E+03  0.50400000000E-02 0. -1.
         -1   -1    0    0  501    0 -0.00000000000E+00 -0.00000000000E+00 -0.12921379948E+01  0.12921478241E+01  0.50400000000E-02 0. -1.
          2    1    1    2    0  502 -0.20235319607E+02  0.10282158209E+02  0.22359428077E+03  0.22474339442E+03  0.25500000000E-02 0. -1.
         -2    1    1    2  502    0  0.20235319607E+02 -0.10282158209E+02  0.17876991523E+03  0.18020508743E+03  0.25500000000E-02 0. -1.
<mgrwt>
<rscale>  0 0.45676326E+02</rscale>
<asrwt>0</asrwt>
<pdfrwt beam="1">  1        1 0.62101112E-01 0.45676326E+02</pdfrwt>
<pdfrwt beam="2">  1       -1 0.19879078E-03 0.45676326E+02</pdfrwt>
<totfact> 0.79252552E+05</totfact>
</mgrwt>
</event>
<event>
 4    1  0.1893769E-002  0.7348593E+02  0.7818608E-02  0.1348625E+00
          1   -1    0    0    0  501  0.00000000000E+00  0.00000000000E+00  0.31883951280E+03  0.31883951284E+03  0.50400000000E-02 0. -1.
         -1   -1    0    0  501    0 -0.00000000000E+00 -0.00000000000E+00 -0.42342466352E+01  0.42342496348E+01  0.50400000000E-02 0. -1.
          2    1    1    2    0  502 -0.10916588777E+02 -0.32721976281E+02  0.10166668582E+03  0.10735927838E+03  0.25500000000E-02 0. -1.
         -2    1    1    2  502    0  0.10916588777E+02  0.32721976281E+02  0.21293858035E+03  0.21571448410E+03  0.25500000000E-02 0. -1.
<mgrwt>
<rscale>  0 0.73485934E+02</rscale>
<asrwt>0</asrwt>
<pdfrwt beam="1">  1        1 0.49052249E-01 0.73485934E+02</pdfrwt>
<pdfrwt beam="2">  1       -1 0.65142258E-03 0.73485934E+02</pdfrwt>
<totfact> 0.22866548E+05</totfact>
</mgrwt>
</event>
<event>
 4    1  0.1893769E-002  0.4359704E+02  0.7818608E-02  0.1483295E+00
         -1   -1    0    0  501    0 -0.00000000000E+00  0.00000000000E+00  0.24235953498E+01  0.24236005902E+01  0.50400000000E-02 0. -1.
          1   -1    0    0    0  501  0.00000000000E+00 -0.00000000000E+00 -0.19606196860E+03  0.19606196866E+03  0.50400000000E-02 0. -1.
          2    1    1    2    0  502  0.43413383127E+01  0.20411462131E+02 -0.68133228730E+02  0.71257363608E+02  0.25500000000E-02 0. -1.
         -2    1    1    2  502    0 -0.43413383127E+01 -0.20411462131E+02 -0.12550514452E+03  0.12722820565E+03  0.25500000000E-02 0. -1.
<mgrwt>
<rscale>  0 0.43597037E+02</rscale>
<asrwt>0</asrwt>
<pdfrwt beam="2">  1        1 0.30163368E-01 0.43597037E+02</pdfrwt>
<pdfrwt beam="1">  1       -1 0.37286139E-03 0.43597037E+02</pdfrwt>
<totfact> 0.78723813E+05</totfact>
</mgrwt>
</event>
<event>
 4    1  0.1893769E-002  0.9508068E+02  0.7818608E-02  0.1290994E+00
         -1   -1    0    0  501    0 -0.00000000000E+00  0.00000000000E+00  0.31753572234E+02  0.31753572634E+02  0.50400000000E-02 0. -1.
          1   -1    0    0    0  501  0.00000000000E+00 -0.00000000000E+00 -0.71175732532E+02  0.71175732711E+02  0.50400000000E-02 0. -1.
          2    1    1    2    0  502 -0.19114603510E+02 -0.39927724175E+02 -0.38476731318E+02  0.58651940161E+02  0.25500000000E-02 0.  1.
         -2    1    1    2  502    0  0.19114603510E+02  0.39927724175E+02 -0.94542898022E+00  0.44277365184E+02  0.25500000000E-02 0.  1.
<mgrwt>
<rscale>  0 0.95080677E+02</rscale>
<asrwt>0</asrwt>
<pdfrwt beam="2">  1        1 0.10950113E-01 0.95080677E+02</pdfrwt>
<pdfrwt beam="1">  1       -1 0.48851650E-02 0.95080677E+02</pdfrwt>
<totfact> 0.88086724E+04</totfact>
</mgrwt>
</event>
<event>
 4    1  0.1893769E-002  0.4807702E+02  0.7818608E-02  0.1455998E+00
         -1   -1    0    0  501    0 -0.00000000000E+00  0.00000000000E+00  0.51134513299E+02  0.51134513547E+02  0.50400000000E-02 0.  1.
          1   -1    0    0    0  501  0.00000000000E+00 -0.00000000000E+00 -0.11300587394E+02  0.11300588517E+02  0.50400000000E-02 0.  1.
          2    1    1    2    0  502 -0.12892267275E+02  0.16923247620E+02  0.34450399939E+02  0.40489960830E+02  0.25500000000E-02 0. -1.
         -2    1    1    2  502    0  0.12892267275E+02 -0.16923247620E+02  0.53835259655E+01  0.21945141235E+02  0.25500000000E-02 0. -1.
<mgrwt>
<rscale>  0 0.48077025E+02</rscale>
<asrwt>0</asrwt>
<pdfrwt beam="2">  1        1 0.17385520E-02 0.48077025E+02</pdfrwt>
<pdfrwt beam="1">  1       -1 0.78668485E-02 0.48077025E+02</pdfrwt>
<totfact> 0.44883692E+05</totfact>
</mgrwt>
</event>
<event>
 4    1  0.1893769E-002  0.4476973E+02  0.7818608E-02  0.1475784E+00
         -1   -1    0    0  501    0 -0.00000000000E+00  0.00000000000E+00  0.15422073268E+01  0.15422155622E+01  0.50400000000E-02 0. -1.
          1   -1    0    0    0  501  0.00000000000E+00 -0.00000000000E+00 -0.32491140639E+03  0.32491140643E+03  0.50400000000E-02 0. -1.
          2    1    1    2    0  502  0.17774581246E+02 -0.11963791447E+02 -0.11442017967E+03  0.11640895828E+03  0.25500000000E-02 0. -1.
         -2    1    1    2  502    0 -0.17774581246E+02  0.11963791447E+02 -0.20894901939E+03  0.21004466371E+03  0.25500000000E-02 0. -1.
<mgrwt>
<rscale>  0 0.44769726E+02</rscale>
<asrwt>0</asrwt>
<pdfrwt beam="2">  1        1 0.49986316E-01 0.44769726E+02</pdfrwt>
<pdfrwt beam="1">  1       -1 0.23726356E-03 0.44769726E+02</pdfrwt>
<totfact> 0.80441880E+05</totfact>
</mgrwt>
</event>
<event>
 4    1  0.1893769E-002  0.4149434E+02  0.7818608E-02  0.1497494E+00
         -1   -1    0    0  501    0 -0.00000000000E+00  0.00000000000E+00  0.66396233396E+01  0.66396252525E+01  0.50400000000E-02 0. -1.
          1   -1    0    0    0  501  0.00000000000E+00 -0.00000000000E+00 -0.64829724493E+02  0.64829724689E+02  0.50400000000E-02 0. -1.
          2    1    1    2    0  502  0.72382148497E+01  0.19101006199E+02 -0.35353941377E+02  0.40830642530E+02  0.25500000000E-02 0.  1.
         -2    1    1    2  502    0 -0.72382148497E+01 -0.19101006199E+02 -0.22836159777E+02  0.30638707412E+02  0.25500000000E-02 0.  1.
<mgrwt>
<rscale>  0 0.41494338E+02</rscale>
<asrwt>0</asrwt>
<pdfrwt beam="2">  1        1 0.99738035E-02 0.41494338E+02</pdfrwt>
<pdfrwt beam="1">  1       -1 0.10214807E-02 0.41494338E+02</pdfrwt>
<totfact> 0.76493829E+05</totfact>
</mgrwt>
</event>
<event>
 4    1  0.1893769E-002  0.6284567E+02  0.7818608E-02  0.1386263E+00
         -1   -1    0    0  501    0 -0.00000000000E+00  0.00000000000E+00  0.17888528782E+01  0.17888599782E+01  0.50400000000E-02 0. -1.
          1   -1    0    0    0  501  0.00000000000E+00 -0.00000000000E+00 -0.55196966467E+03  0.55196966470E+03  0.50400000000E-02 0. -1.
          2    1    1    2    0  502 -0.29453517688E+02 -0.95649437982E+01 -0.32204504619E+03  0.32353053895E+03  0.25500000000E-02 0. -1.
         -2    1    1    2  502    0  0.29453517688E+02  0.95649437982E+01 -0.22813576561E+03  0.23022798572E+03  0.25500000000E-02 0. -1.
<mgrwt>
<rscale>  0 0.62845668E+02</rscale>
<asrwt>0</asrwt>
<pdfrwt beam="2">  1        1 0.84918275E-01 0.62845668E+02</pdfrwt>
<pdfrwt beam="1">  1       -1 0.27520912E-03 0.62845668E+02</pdfrwt>
<totfact> 0.37005720E+05</totfact>
</mgrwt>
</event>
<event>
 4    1  0.1893769E-002  0.5726251E+02  0.7818608E-02  0.1409692E+00
         -1   -1    0    0  501    0 -0.00000000000E+00  0.00000000000E+00  0.76128640966E+02  0.76128641133E+02  0.50400000000E-02 0. -1.
          1   -1    0    0    0  501  0.00000000000E+00 -0.00000000000E+00 -0.10767942725E+02  0.10767943904E+02  0.50400000000E-02 0. -1.
          2    1    1    2    0  502 -0.12990436082E+01 -0.28537457602E+02  0.35589423819E+02  0.45636400986E+02  0.25500000000E-02 0.  1.
         -2    1    1    2  502    0  0.12990436082E+01  0.28537457602E+02  0.29771274422E+02  0.41260184051E+02  0.25500000000E-02 0.  1.
<mgrwt>
<rscale>  0 0.57262515E+02</rscale>
<asrwt>0</asrwt>
<pdfrwt beam="2">  1        1 0.16566067E-02 0.57262515E+02</pdfrwt>
<pdfrwt beam="1">  1       -1 0.11712099E-01 0.57262515E+02</pdfrwt>
<totfact> 0.27703652E+05</totfact>
</mgrwt>
</event>
<event>
 4    1  0.1893769E-002  0.5433634E+02  0.7818608E-02  0.1423264E+00
         -1   -1    0    0  501    0 -0.00000000000E+00  0.00000000000E+00  0.17253184399E+02  0.17253185135E+02  0.50400000000E-02 0.  1.
          1   -1    0    0    0  501  0.00000000000E+00 -0.00000000000E+00 -0.42781054334E+02  0.42781054630E+02  0.50400000000E-02 0.  1.
          2    1    1    2    0  502 -0.34814972314E+01 -0.26000441831E+02 -0.49540544934E+01  0.26696188133E+02  0.25500000000E-02 0. -1.
         -2    1    1    2  502    0  0.34814972314E+01  0.26000441831E+02 -0.20573815441E+02  0.33338051633E+02  0.25500000000E-02 0. -1.
<mgrwt>
<rscale>  0 0.54336340E+02</rscale>
<asrwt>0</asrwt>
<pdfrwt beam="2">  1        1 0.65817008E-02 0.54336340E+02</pdfrwt>
<pdfrwt beam="1">  1       -1 0.26543361E-02 0.54336340E+02</pdfrwt>
<totfact> 0.37060133E+05</totfact>
</mgrwt>
</event>
<event>
 4    1  0.1893769E-002  0.1124217E+03  0.7818608E-02  0.1256150E+00
          1   -1    0    0    0  501  0.00000000000E+00  0.00000000000E+00  0.72097603893E+03  0.72097603895E+03  0.50400000000E-02 0. -1.
         -1   -1    0    0  501    0 -0.00000000000E+00 -0.00000000000E+00 -0.43824705626E+01  0.43824734606E+01  0.50400000000E-02 0. -1.
          2    1    1    2    0  502 -0.42275721311E+02  0.17054687719E+02  0.57048814494E+03  0.57230658087E+03  0.25500000000E-02 0.  1.
         -2    1    1    2  502    0  0.42275721311E+02 -0.17054687719E+02  0.14610542342E+03  0.15305193153E+03  0.25500000000E-02 0.  1.
<mgrwt>
<rscale>  0 0.11242166E+03</rscale>
<asrwt>0</asrwt>
<pdfrwt beam="1">  1        1 0.11091940E+00 0.11242166E+03</pdfrwt>
<pdfrwt beam="2">  1       -1 0.67422643E-03 0.11242166E+03</pdfrwt>
<totfact> 0.81211195E+04</totfact>
</mgrwt>
</event>
<event>
 4    1  0.1893769E-002  0.4477463E+02  0.7818608E-02  0.1475753E+00
          1   -1    0    0    0  501  0.00000000000E+00  0.00000000000E+00  0.67341979381E+00  0.67343865369E+00  0.50400000000E-02 0.  1.
         -1   -1    0    0  501    0 -0.00000000000E+00 -0.00000000000E+00 -0.74423849913E+03  0.74423849914E+03  0.50400000000E-02 0.  1.
          2    1    1    2    0  502 -0.22097334111E+02  0.24583146908E+01 -0.41534609710E+03  0.41594076004E+03  0.25500000000E-02 0.  1.
         -2    1    1    2  502    0  0.22097334111E+02 -0.24583146908E+01 -0.32821898224E+03  0.32897117775E+03  0.25500000000E-02 0.  1.
<mgrwt>
<rscale>  0 0.44774634E+02</rscale>
<asrwt>0</asrwt>
<pdfrwt beam="1">  1        1 0.10360509E-03 0.44774634E+02</pdfrwt>
<pdfrwt beam="2">  1       -1 0.11449757E+00 0.44774634E+02</pdfrwt>
<totfact> 0.21268677E+05</totfact>
</mgrwt>
</event>
<event>
 4    1  0.1893769E-002  0.4351336E+02  0.7818608E-02  0.1483842E+00
         -1   -1    0    0  501    0 -0.00000000000E+00  0.00000000000E+00  0.23295628601E+02  0.23295629146E+02  0.50400000000E-02 0. -1.
          1   -1    0    0    0  501  0.00000000000E+00 -0.00000000000E+00 -0.20319398383E+02  0.20319399008E+02  0.50400000000E-02 0. -1.
          2    1    1    2    0  502 -0.11270562221E+02  0.17968505713E+02  0.63430261850E+01  0.22138806608E+02  0.25500000000E-02 0.  1.
         -2    1    1    2  502    0  0.11270562221E+02 -0.17968505713E+02 -0.33667959666E+01  0.21476221546E+02  0.25500000000E-02 0.  1.
<mgrwt>
<rscale>  0 0.43513363E+02</rscale>
<asrwt>0</asrwt>
<pdfrwt beam="2">  1        1 0.31260614E-02 0.43513363E+02</pdfrwt>
<pdfrwt beam="1">  1       -1 0.35839429E-02 0.43513363E+02</pdfrwt>
<totfact> 0.61512796E+05</totfact>
</mgrwt>
</event>
<event>
 4    1  0.1893769E-002  0.4198580E+02  0.7818608E-02  0.1494087E+00
          1   -1    0    0    0  501  0.00000000000E+00  0.00000000000E+00  0.27197751287E+02  0.27197751754E+02  0.50400000000E-02 0.  1.
         -1   -1    0    0  501    0 -0.00000000000E+00 -0.00000000000E+00 -0.16203614264E+02  0.16203615048E+02  0.50400000000E-02 0.  1.
          2    1    1    2    0  502  0.20148417210E+02 -0.56495509463E+01  0.72347403850E+01  0.22140858540E+02  0.25500000000E-02 0. -1.
         -2    1    1    2  502    0 -0.20148417210E+02  0.56495509463E+01  0.37593966377E+01  0.21260508262E+02  0.25500000000E-02 0. -1.
<mgrwt>
<rscale>  0 0.41985802E+02</rscale>
<asrwt>0</asrwt>
<pdfrwt beam="1">  1        1 0.41842695E-02 0.41985802E+02</pdfrwt>
<pdfrwt beam="2">  1       -1 0.24928639E-02 0.41985802E+02</pdfrwt>
<totfact> 0.68911353E+05</totfact>
</mgrwt>
</event>
<event>
 4    1  0.1893769E-002  0.4063461E+02  0.7818608E-02  0.1503593E+00
         -1   -1    0    0  501    0 -0.00000000000E+00  0.00000000000E+00  0.16775967722E+01  0.16776043430E+01  0.50400000000E-02 0. -1.
          1   -1    0    0    0  501  0.00000000000E+00 -0.00000000000E+00 -0.24606148436E+03  0.24606148441E+03  0.50400000000E-02 0. -1.
          2    1    1    2    0  502 -0.19002865488E+02  0.64823154241E+01 -0.14114448487E+03  0.14256540578E+03  0.25500000000E-02 0.  1.
         -2    1    1    2  502    0  0.19002865488E+02 -0.64823154241E+01 -0.10323940272E+03  0.10517368298E+03  0.25500000000E-02 0.  1.
<mgrwt>
<rscale>  0 0.40634611E+02</rscale>
<asrwt>0</asrwt>
<pdfrwt beam="2">  1        1 0.37855585E-01 0.40634611E+02</pdfrwt>
<pdfrwt beam="1">  1       -1 0.25809259E-03 0.40634611E+02</pdfrwt>
<totfact> 0.97216602E+05</totfact>
</mgrwt>
</event>
<event>
 4    1  0.1893769E-002  0.5833843E+02  0.7818608E-02  0.1404940E+00
         -1   -1    0    0  501    0 -0.00000000000E+00  0.00000000000E+00  0.92616489932E+01  0.92616503646E+01  0.50400000000E-02 0. -1.
          1   -1    0    0    0  501  0.00000000000E+00 -0.00000000000E+00 -0.91867339320E+02  0.91867339458E+02  0.50400000000E-02 0. -1.
          2    1    1    2    0  502 -0.40999602695E+01 -0.25070634210E+02 -0.16453016354E+02  0.30266286980E+02  0.25500000000E-02 0. -1.
         -2    1    1    2  502    0  0.40999602695E+01  0.25070634210E+02 -0.66152673973E+02  0.70862702843E+02  0.25500000000E-02 0. -1.
<mgrwt>
<rscale>  0 0.58338431E+02</rscale>
<asrwt>0</asrwt>
<pdfrwt beam="2">  1        1 0.14133436E-01 0.58338431E+02</pdfrwt>
<pdfrwt beam="1">  1       -1 0.14248693E-02 0.58338431E+02</pdfrwt>
<totfact> 0.33681246E+05</totfact>
</mgrwt>
</event>
<event>
 4    1  0.1893769E-002  0.4612842E+02  0.7818608E-02  0.1467418E+00
         -1   -1    0    0  501    0 -0.00000000000E+00  0.00000000000E+00  0.26087937644E+01  0.26087986328E+01  0.50400000000E-02 0.  1.
          1   -1    0    0    0  501  0.00000000000E+00 -0.00000000000E+00 -0.20390932710E+03  0.20390932717E+03  0.50400000000E-02 0.  1.
          2    1    1    2    0  502 -0.87001926748E+00 -0.22563706039E+02 -0.12168757954E+03  0.12376487703E+03  0.25500000000E-02 0. -1.
         -2    1    1    2  502    0  0.87001926748E+00  0.22563706039E+02 -0.79612953798E+02  0.82753248774E+02  0.25500000000E-02 0. -1.
<mgrwt>
<rscale>  0 0.46128425E+02</rscale>
<asrwt>0</asrwt>
<pdfrwt beam="2">  1        1 0.31370654E-01 0.46128425E+02</pdfrwt>
<pdfrwt beam="1">  1       -1 0.40135343E-03 0.46128425E+02</pdfrwt>
<totfact> 0.68932272E+05</totfact>
</mgrwt>
</event>
<event>
 4    1  0.1893769E-002  0.4912083E+02  0.7818608E-02  0.1450142E+00
         -1   -1    0    0  501    0 -0.00000000000E+00  0.00000000000E+00  0.29242885006E+00  0.29247227894E+00  0.50400000000E-02 0. -1.
          1   -1    0    0    0  501  0.00000000000E+00 -0.00000000000E+00 -0.20626190044E+04  0.20626190044E+04  0.50400000000E-02 0. -1.
          2    1    1    2    0  502  0.22518266202E+02 -0.95715439488E+01 -0.94180475525E+03  0.94212254181E+03  0.25500000000E-02 0. -1.
         -2    1    1    2  502    0 -0.22518266202E+02  0.95715439488E+01 -0.11205218203E+04  0.11207889349E+04  0.25500000000E-02 0. -1.
<mgrwt>
<rscale>  0 0.49120835E+02</rscale>
<asrwt>0</asrwt>
<pdfrwt beam="2">  1        1 0.31731436E+00 0.49120835E+02</pdfrwt>
<pdfrwt beam="1">  1       -1 0.44994047E-04 0.49120835E+02</pdfrwt>
<totfact> 0.37551738E+05</totfact>
</mgrwt>
</event>
<event>
 4    1  0.1893769E-002  0.4881518E+02  0.7818608E-02  0.1451839E+00
          1   -1    0    0    0  501  0.00000000000E+00  0.00000000000E+00  0.44391807895E+01  0.44391836506E+01  0.50400000000E-02 0.  1.
         -1   -1    0    0  501    0 -0.00000000000E+00 -0.00000000000E+00 -0.13419822332E+03  0.13419822342E+03  0.50400000000E-02 0.  1.
          2    1    1    2    0  502  0.54964209576E+01  0.19629379671E+02 -0.10300467533E+03  0.10500231586E+03  0.25500000000E-02 0. -1.
         -2    1    1    2  502    0 -0.54964209576E+01 -0.19629379671E+02 -0.26754367203E+02  0.33635091208E+02  0.25500000000E-02 0. -1.
<mgrwt>
<rscale>  0 0.48815177E+02</rscale>
<asrwt>0</asrwt>
<pdfrwt beam="1">  1        1 0.68295122E-03 0.48815177E+02</pdfrwt>
<pdfrwt beam="2">  1       -1 0.20645878E-01 0.48815177E+02</pdfrwt>
<totfact> 0.37410452E+05</totfact>
</mgrwt>
</event>
<event>
 4    1  0.1893769E-002  0.6943184E+02  0.7818608E-02  0.1362036E+00
          1   -1    0    0    0  501  0.00000000000E+00  0.00000000000E+00  0.78448382038E+03  0.78448382040E+03  0.50400000000E-02 0. -1.
         -1   -1    0    0  501    0 -0.00000000000E+00 -0.00000000000E+00 -0.15362864598E+01  0.15362947270E+01  0.50400000000E-02 0. -1.
          2    1    1    2    0  502  0.12821879856E+02 -0.25181502884E+02  0.16317433987E+03  0.16560306123E+03  0.25500000000E-02 0.  1.
         -2    1    1    2  502    0 -0.12821879856E+02  0.25181502884E+02  0.61977319405E+03  0.62041705389E+03  0.25500000000E-02 0.  1.
<mgrwt>
<rscale>  0 0.69431841E+02</rscale>
<asrwt>0</asrwt>
<pdfrwt beam="1">  1        1 0.12068978E+00 0.69431841E+02</pdfrwt>
<pdfrwt beam="2">  1       -1 0.23635248E-03 0.69431841E+02</pdfrwt>
<totfact> 0.28805380E+05</totfact>
</mgrwt>
</event>
<event>
 4    1  0.1893769E-002  0.6413550E+02  0.7818608E-02  0.1381253E+00
          1   -1    0    0    0  501  0.00000000000E+00  0.00000000000E+00  0.26637716664E+03  0.26637716669E+03  0.50400000000E-02 0. -1.
         -1   -1    0    0  501    0 -0.00000000000E+00 -0.00000000000E+00 -0.38604662887E+01  0.38604695786E+01  0.50400000000E-02 0. -1.
          2    1    1    2    0  502  0.88313226950E-02  0.30148845902E+02  0.17729745227E+03  0.17984254106E+03  0.25500000000E-02 0. -1.
         -2    1    1    2  502    0 -0.88313226950E-02 -0.30148845902E+02  0.85219248086E+02  0.90395095210E+02  0.25500000000E-02 0. -1.
<mgrwt>
<rscale>  0 0.64135498E+02</rscale>
<asrwt>0</asrwt>
<pdfrwt beam="1">  1        1 0.40981117E-01 0.64135498E+02</pdfrwt>
<pdfrwt beam="2">  1       -1 0.59391794E-03 0.64135498E+02</pdfrwt>
<totfact> 0.31459923E+05</totfact>
</mgrwt>
</event>
<event>
 4    1  0.1893769E-002  0.6703251E+02  0.7818608E-02  0.1370485E+00
          1   -1    0    0    0  501  0.00000000000E+00  0.00000000000E+00  0.52363193542E+03  0.52363193544E+03  0.50400000000E-02 0.  1.
         -1   -1    0    0  501    0 -0.00000000000E+00 -0.00000000000E+00 -0.21452813614E+01  0.21452872818E+01  0.50400000000E-02 0.  1.
          2    1    1    2    0  502 -0.34839922789E+01 -0.20756514399E+02  0.56151485450E+02  0.59966327359E+02  0.25500000000E-02 0. -1.
         -2    1    1    2  502    0  0.34839922789E+01  0.20756514399E+02  0.46533516861E+03  0.46581089537E+03  0.25500000000E-02 0. -1.
<mgrwt>
<rscale>  0 0.67032511E+02</rscale>
<asrwt>0</asrwt>
<pdfrwt beam="1">  1        1 0.80558695E-01 0.67032511E+02</pdfrwt>
<pdfrwt beam="2">  1       -1 0.33004401E-03 0.67032511E+02</pdfrwt>
<totfact> 0.31226442E+05</totfact>
</mgrwt>
</event>
<event>
 4    1  0.1893769E-002  0.6196172E+02  0.7818608E-02  0.1389779E+00
         -1   -1    0    0  501    0 -0.00000000000E+00  0.00000000000E+00  0.24736384557E+01  0.24736435902E+01  0.50400000000E-02 0.  1.
          1   -1    0    0    0  501  0.00000000000E+00 -0.00000000000E+00 -0.38801652713E+03  0.38801652716E+03  0.50400000000E-02 0.  1.
          2    1    1    2    0  502  0.18681788133E+02 -0.14354763510E+02 -0.31955925179E+03  0.32042656546E+03  0.25500000000E-02 0. -1.
         -2    1    1    2  502    0 -0.18681788133E+02  0.14354763510E+02 -0.65983636889E+02  0.70063605295E+02  0.25500000000E-02 0. -1.
<mgrwt>
<rscale>  0 0.61961718E+02</rscale>
<asrwt>0</asrwt>
<pdfrwt beam="2">  1        1 0.59694803E-01 0.61961718E+02</pdfrwt>
<pdfrwt beam="1">  1       -1 0.38056047E-03 0.61961718E+02</pdfrwt>
<totfact> 0.36690930E+05</totfact>
</mgrwt>
</event>
<event>
 4    1  0.1893769E-002  0.6624828E+02  0.7818608E-02  0.1373337E+00
          1   -1    0    0    0  501  0.00000000000E+00  0.00000000000E+00  0.79868023383E+03  0.79868023385E+03  0.50400000000E-02 0. -1.
         -1   -1    0    0  501    0 -0.00000000000E+00 -0.00000000000E+00 -0.13737726484E+01  0.13737818936E+01  0.50400000000E-02 0. -1.
          2    1    1    2    0  502 -0.24907502074E+02 -0.18087826453E+02  0.25091557141E+03  0.25279671103E+03  0.25500000000E-02 0. -1.
         -2    1    1    2  502    0  0.24907502074E+02  0.18087826453E+02  0.54639088978E+03  0.54725730471E+03  0.25500000000E-02 0. -1.
<mgrwt>
<rscale>  0 0.66248283E+02</rscale>
<asrwt>0</asrwt>
<pdfrwt beam="1">  1        1 0.12287397E+00 0.66248283E+02</pdfrwt>
<pdfrwt beam="2">  1       -1 0.21135020E-03 0.66248283E+02</pdfrwt>
<totfact> 0.32444246E+05</totfact>
</mgrwt>
</event>
<event>
 4    1  0.1893769E-002  0.6253247E+02  0.7818608E-02  0.1387501E+00
          1   -1    0    0    0  501  0.00000000000E+00  0.00000000000E+00  0.11138051401E+02  0.11138052542E+02  0.50400000000E-02 0. -1.
         -1   -1    0    0  501    0 -0.00000000000E+00 -0.00000000000E+00 -0.87769152592E+02  0.87769152736E+02  0.50400000000E-02 0. -1.
          2    1    1    2    0  502 -0.59026956489E+01  0.27306064700E+02 -0.16108977652E+02  0.32248444192E+02  0.25500000000E-02 0. -1.
         -2    1    1    2  502    0  0.59026956489E+01 -0.27306064700E+02 -0.60522123538E+02  0.66658761085E+02  0.25500000000E-02 0. -1.
<mgrwt>
<rscale>  0 0.62532468E+02</rscale>
<asrwt>0</asrwt>
<pdfrwt beam="1">  1        1 0.17135465E-02 0.62532468E+02</pdfrwt>
<pdfrwt beam="2">  1       -1 0.13502946E-01 0.62532468E+02</pdfrwt>
<totfact> 0.21752349E+05</totfact>
</mgrwt>
</event>
<event>
 4    1  0.1893769E-002  0.4895734E+02  0.7818608E-02  0.1451048E+00
          1   -1    0    0    0  501  0.00000000000E+00  0.00000000000E+00  0.21646562522E+01  0.21646621195E+01  0.50400000000E-02 0.  1.
         -1   -1    0    0  501    0 -0.00000000000E+00 -0.00000000000E+00 -0.27681279451E+03  0.27681279456E+03  0.50400000000E-02 0.  1.
          2    1    1    2    0  502 -0.17022376014E+02 -0.17552126964E+02 -0.13066179372E+03  0.13292984161E+03  0.25500000000E-02 0. -1.
         -2    1    1    2  502    0  0.17022376014E+02  0.17552126964E+02 -0.14398634454E+03  0.14604761507E+03  0.25500000000E-02 0. -1.
<mgrwt>
<rscale>  0 0.48957344E+02</rscale>
<asrwt>0</asrwt>
<pdfrwt beam="1">  1        1 0.33302471E-03 0.48957344E+02</pdfrwt>
<pdfrwt beam="2">  1       -1 0.42586556E-01 0.48957344E+02</pdfrwt>
<totfact> 0.30458826E+05</totfact>
</mgrwt>
</event>
<event>
 4    1  0.1893769E-002  0.4278707E+02  0.7818608E-02  0.1488649E+00
          1   -1    0    0    0  501  0.00000000000E+00  0.00000000000E+00  0.10557119770E+04  0.10557119770E+04  0.50400000000E-02 0.  1.
         -1   -1    0    0  501    0 -0.00000000000E+00 -0.00000000000E+00 -0.43351577175E+00  0.43354506797E+00  0.50400000000E-02 0.  1.
          2    1    1    2    0  502  0.20686171925E+02  0.46086074543E+01  0.59971533907E+03  0.60008969737E+03  0.25500000000E-02 0.  1.
         -2    1    1    2  502    0 -0.20686171925E+02 -0.46086074543E+01  0.45556312215E+03  0.45605582470E+03  0.25500000000E-02 0.  1.
<mgrwt>
<rscale>  0 0.42787067E+02</rscale>
<asrwt>0</asrwt>
<pdfrwt beam="1">  1        1 0.16241514E+00 0.42787067E+02</pdfrwt>
<pdfrwt beam="2">  1       -1 0.66697845E-04 0.42787067E+02</pdfrwt>
<totfact> 0.91671920E+05</totfact>
</mgrwt>
</event>
<event>
 4    1  0.1893769E-002  0.7790966E+02  0.7818608E-02  0.1335090E+00
         -1   -1    0    0  501    0 -0.00000000000E+00  0.00000000000E+00  0.47087263007E+03  0.47087263010E+03  0.50400000000E-02 0. -1.
          1   -1    0    0    0  501  0.00000000000E+00 -0.00000000000E+00 -0.32226928509E+01  0.32226967919E+01  0.50400000000E-02 0. -1.
          2    1    1    2    0  502  0.10487132667E+02  0.28463776083E+02  0.85103012531E+02  0.90347602342E+02  0.25500000000E-02 0.  1.
         -2    1    1    2  502    0 -0.10487132667E+02 -0.28463776083E+02  0.38254692469E+03  0.38374772455E+03  0.25500000000E-02 0.  1.
<mgrwt>
<rscale>  0 0.77909660E+02</rscale>
<asrwt>0</asrwt>
<pdfrwt beam="2">  1        1 0.49579944E-03 0.77909660E+02</pdfrwt>
<pdfrwt beam="1">  1       -1 0.72441909E-01 0.77909660E+02</pdfrwt>
<totfact> 0.73464918E+04</totfact>
</mgrwt>
</event>
<event>
 4    1  0.1893769E-002  0.5753197E+02  0.7818608E-02  0.1408491E+00
         -1   -1    0    0  501    0 -0.00000000000E+00  0.00000000000E+00  0.17125346838E+01  0.17125421001E+01  0.50400000000E-02 0.  1.
          1   -1    0    0    0  501  0.00000000000E+00 -0.00000000000E+00 -0.48319029559E+03  0.48319029562E+03  0.50400000000E-02 0.  1.
          2    1    1    2    0  502  0.25097671954E+02  0.98102862309E+01 -0.32558873395E+03  0.32670194144E+03  0.25500000000E-02 0.  1.
         -2    1    1    2  502    0 -0.25097671954E+02 -0.98102862309E+01 -0.15588902695E+03  0.15820089628E+03  0.25500000000E-02 0.  1.
<mgrwt>
<rscale>  0 0.57531972E+02</rscale>
<asrwt>0</asrwt>
<pdfrwt beam="2">  1        1 0.74336861E-01 0.57531972E+02</pdfrwt>
<pdfrwt beam="1">  1       -1 0.26346783E-03 0.57531972E+02</pdfrwt>
<totfact> 0.45676337E+05</totfact>
</mgrwt>
</event>
<event>
 4    1  0.1893769E-002  0.9111979E+02  0.7818608E-02  0.1300162E+00
          1   -1    0    0    0  501  0.00000000000E+00  0.00000000000E+00  0.80514017517E+01  0.80514033291E+01  0.50400000000E-02 0. -1.
         -1   -1    0    0  501    0 -0.00000000000E+00 -0.00000000000E+00 -0.25780649057E+03  0.25780649062E+03  0.50400000000E-02 0. -1.
          2    1    1    2    0  502  0.43469000098E+02 -0.41821825577E+01 -0.16276905436E+03  0.16852539774E+03  0.25500000000E-02 0.  1.
         -2    1    1    2  502    0 -0.43469000098E+02  0.41821825577E+01 -0.86986034461E+02  0.97332496209E+02  0.25500000000E-02 0.  1.
<mgrwt>
<rscale>  0 0.91119786E+02</rscale>
<asrwt>0</asrwt>
<pdfrwt beam="1">  1        1 0.12386775E-02 0.91119786E+02</pdfrwt>
<pdfrwt beam="2">  1       -1 0.39662531E-01 0.91119786E+02</pdfrwt>
<totfact> 0.64190099E+04</totfact>
</mgrwt>
</event>
<event>
 4    1  0.1893769E-002  0.9177446E+02  0.7818608E-02  0.1298611E+00
         -1   -1    0    0  501    0 -0.00000000000E+00  0.00000000000E+00  0.11454293330E+01  0.11454404212E+01  0.50400000000E-02 0.  1.
          1   -1    0    0    0  501  0.00000000000E+00 -0.00000000000E+00 -0.18382867060E+04  0.18382867060E+04  0.50400000000E-02 0.  1.
          2    1    1    2    0  502  0.40174816050E+02  0.16450045641E+02 -0.62059851052E+03  0.62211504652E+03  0.25500000000E-02 0. -1.
         -2    1    1    2  502    0 -0.40174816050E+02 -0.16450045641E+02 -0.12165427662E+04  0.12173170999E+04  0.25500000000E-02 0. -1.
<mgrwt>
<rscale>  0 0.91774457E+02</rscale>
<asrwt>0</asrwt>
<pdfrwt beam="2">  1        1 0.28281098E+00 0.91774457E+02</pdfrwt>
<pdfrwt beam="1">  1       -1 0.17622222E-03 0.91774457E+02</pdfrwt>
<totfact> 0.88066781E+04</totfact>
</mgrwt>
</event>
<event>
 4    1  0.1893769E-002  0.4406693E+02  0.7818608E-02  0.1480252E+00
         -1   -1    0    0  501    0 -0.00000000000E+00  0.00000000000E+00  0.37203503297E+01  0.37203537436E+01  0.50400000000E-02 0. -1.
          1   -1    0    0    0  501  0.00000000000E+00 -0.00000000000E+00 -0.13049128082E+03  0.13049128092E+03  0.50400000000E-02 0. -1.
          2    1    1    2    0  502  0.99255375299E+01  0.19618307398E+02 -0.67777123034E+02  0.71254001247E+02  0.25500000000E-02 0. -1.
         -2    1    1    2  502    0 -0.99255375299E+01 -0.19618307398E+02 -0.58993807460E+02  0.62957633418E+02  0.25500000000E-02 0. -1.
<mgrwt>
<rscale>  0 0.44066927E+02</rscale>
<asrwt>0</asrwt>
<pdfrwt beam="2">  1        1 0.20075578E-01 0.44066927E+02</pdfrwt>
<pdfrwt beam="1">  1       -1 0.57236196E-03 0.44066927E+02</pdfrwt>
<totfact> 0.71877869E+05</totfact>
</mgrwt>
</event>
<event>
 4    1  0.1893769E-002  0.5008120E+02  0.7818608E-02  0.1444904E+00
          1   -1    0    0    0  501  0.00000000000E+00  0.00000000000E+00  0.44838265947E+02  0.44838266230E+02  0.50400000000E-02 0.  1.
         -1   -1    0    0  501    0 -0.00000000000E+00 -0.00000000000E+00 -0.13984297946E+02  0.13984298854E+02  0.50400000000E-02 0.  1.
          2    1    1    2    0  502  0.90638331034E+01 -0.21265572818E+02  0.41211814729E+01  0.23481094545E+02  0.25500000000E-02 0. -1.
         -2    1    1    2  502    0 -0.90638331034E+01  0.21265572818E+02  0.26732786528E+02  0.35341470539E+02  0.25500000000E-02 0. -1.
<mgrwt>
<rscale>  0 0.50081202E+02</rscale>
<asrwt>0</asrwt>
<pdfrwt beam="1">  1        1 0.68981950E-02 0.50081202E+02</pdfrwt>
<pdfrwt beam="2">  1       -1 0.21514305E-02 0.50081202E+02</pdfrwt>
<totfact> 0.45941307E+05</totfact>
</mgrwt>
</event>
<event>
 4    1  0.1893769E-002  0.8365891E+02  0.7818608E-02  0.1318977E+00
         -1   -1    0    0  501    0 -0.00000000000E+00  0.00000000000E+00  0.94276959942E+02  0.94276960076E+02  0.50400000000E-02 0.  1.
          1   -1    0    0    0  501  0.00000000000E+00 -0.00000000000E+00 -0.18559183670E+02  0.18559184354E+02  0.50400000000E-02 0.  1.
          2    1    1    2    0  502  0.35848888257E+02 -0.17052211239E+02  0.55639199388E+02  0.68349405355E+02  0.25500000000E-02 0. -1.
         -2    1    1    2  502    0 -0.35848888257E+02  0.17052211239E+02  0.20078576884E+02  0.44486739075E+02  0.25500000000E-02 0. -1.
<mgrwt>
<rscale>  0 0.83658914E+02</rscale>
<asrwt>0</asrwt>
<pdfrwt beam="2">  1        1 0.28552591E-02 0.83658914E+02</pdfrwt>
<pdfrwt beam="1">  1       -1 0.14504148E-01 0.83658914E+02</pdfrwt>
<totfact> 0.10257817E+05</totfact>
</mgrwt>
</event>
<event>
 4    1  0.1893769E-002  0.4359052E+02  0.7818608E-02  0.1483338E+00
         -1   -1    0    0  501    0 -0.00000000000E+00  0.00000000000E+00  0.47434335881E+02  0.47434336149E+02  0.50400000000E-02 0.  1.
          1   -1    0    0    0  501  0.00000000000E+00 -0.00000000000E+00 -0.10014544745E+02  0.10014546013E+02  0.50400000000E-02 0.  1.
          2    1    1    2    0  502  0.51250673902E+01  0.20494946490E+02  0.25773287228E+02  0.33325238010E+02  0.25500000000E-02 0.  1.
         -2    1    1    2  502    0 -0.51250673902E+01 -0.20494946490E+02  0.11646503907E+02  0.24123644151E+02  0.25500000000E-02 0.  1.
<mgrwt>
<rscale>  0 0.43590518E+02</rscale>
<asrwt>0</asrwt>
<pdfrwt beam="2">  1        1 0.15406993E-02 0.43590518E+02</pdfrwt>
<pdfrwt beam="1">  1       -1 0.72975903E-02 0.43590518E+02</pdfrwt>
<totfact> 0.57465175E+05</totfact>
</mgrwt>
</event>
<event>
 4    1  0.1893769E-002  0.6282476E+02  0.7818608E-02  0.1386346E+00
         -1   -1    0    0  501    0 -0.00000000000E+00  0.00000000000E+00  0.67437353179E+01  0.67437372012E+01  0.50400000000E-02 0. -1.
          1   -1    0    0    0  501  0.00000000000E+00 -0.00000000000E+00 -0.14631911660E+03  0.14631911669E+03  0.50400000000E-02 0. -1.
          2    1    1    2    0  502 -0.19647275322E+02 -0.16309581616E+02 -0.11436148388E+03  0.11717750160E+03  0.25500000000E-02 0. -1.
         -2    1    1    2  502    0  0.19647275322E+02  0.16309581616E+02 -0.25213897408E+02  0.35885352291E+02  0.25500000000E-02 0. -1.
<mgrwt>
<rscale>  0 0.62824758E+02</rscale>
<asrwt>0</asrwt>
<pdfrwt beam="2">  1        1 0.22510631E-01 0.62824758E+02</pdfrwt>
<pdfrwt beam="1">  1       -1 0.10374980E-02 0.62824758E+02</pdfrwt>
<totfact> 0.29836955E+05</totfact>
</mgrwt>
</event>
<event>
 4    1  0.1893769E-002  0.4190177E+02  0.7818608E-02  0.1494665E+00
          1   -1    0    0    0  501  0.00000000000E+00  0.00000000000E+00  0.71398700798E+02  0.71398700976E+02  0.50400000000E-02 0. -1.
         -1   -1    0    0  501    0 -0.00000000000E+00 -0.00000000000E+00 -0.61477238636E+01  0.61477259295E+01  0.50400000000E-02 0. -1.
          2    1    1    2    0  502 -0.42390708153E+01  0.20137386743E+02  0.39901126869E+02  0.44895255854E+02  0.25500000000E-02 0.  1.
         -2    1    1    2  502    0  0.42390708153E+01 -0.20137386743E+02  0.25349850066E+02  0.32651171052E+02  0.25500000000E-02 0.  1.
<mgrwt>
<rscale>  0 0.41901770E+02</rscale>
<asrwt>0</asrwt>
<pdfrwt beam="1">  1        1 0.10984415E-01 0.41901770E+02</pdfrwt>
<pdfrwt beam="2">  1       -1 0.94580387E-03 0.41901770E+02</pdfrwt>
<totfact> 0.75427465E+05</totfact>
</mgrwt>
</event>
<event>
 4    1  0.1893769E-002  0.4541015E+02  0.7818608E-02  0.1471797E+00
         -1   -1    0    0  501    0 -0.00000000000E+00  0.00000000000E+00  0.18276911231E+02  0.18276911926E+02  0.50400000000E-02 0. -1.
          1   -1    0    0    0  501  0.00000000000E+00 -0.00000000000E+00 -0.28206102472E+02  0.28206102922E+02  0.50400000000E-02 0. -1.
          2    1    1    2    0  502 -0.21943933858E+02 -0.31502775902E+01 -0.99855800342E+01  0.24314034983E+02  0.25500000000E-02 0.  1.
         -2    1    1    2  502    0  0.21943933858E+02  0.31502775902E+01  0.56388793191E-01  0.22168979865E+02  0.25500000000E-02 0.  1.
<mgrwt>
<rscale>  0 0.45410151E+02</rscale>
<asrwt>0</asrwt>
<pdfrwt beam="2">  1        1 0.43394005E-02 0.45410151E+02</pdfrwt>
<pdfrwt beam="1">  1       -1 0.28118326E-02 0.45410151E+02</pdfrwt>
<totfact> 0.56637460E+05</totfact>
</mgrwt>
</event>
<event>
 4    1  0.1893769E-002  0.1265084E+03  0.7818608E-02  0.1232731E+00
         -1   -1    0    0  501    0 -0.00000000000E+00  0.00000000000E+00  0.20138084315E+01  0.20138147383E+01  0.50400000000E-02 0.  1.
          1   -1    0    0    0  501  0.00000000000E+00 -0.00000000000E+00 -0.19868263130E+04  0.19868263130E+04  0.50400000000E-02 0.  1.
          2    1    1    2    0  502 -0.63087416265E+02 -0.32323149655E+01 -0.10436478339E+04  0.10455578756E+04  0.25500000000E-02 0.  1.
         -2    1    1    2  502    0  0.63087416265E+02  0.32323149655E+01 -0.94116467067E+03  0.94328225217E+03  0.25500000000E-02 0.  1.
<mgrwt>
<rscale>  0 0.12650840E+03</rscale>
<asrwt>0</asrwt>
<pdfrwt beam="2">  1        1 0.30566402E+00 0.12650840E+03</pdfrwt>
<pdfrwt beam="1">  1       -1 0.30981876E-03 0.12650840E+03</pdfrwt>
<totfact> 0.33306972E+04</totfact>
</mgrwt>
</event>
<event>
 4    1  0.1893769E-002  0.8113541E+02  0.7818608E-02  0.1325860E+00
         -1   -1    0    0  501    0 -0.00000000000E+00  0.00000000000E+00  0.48171928684E+01  0.48171955050E+01  0.50400000000E-02 0. -1.
          1   -1    0    0    0  501  0.00000000000E+00 -0.00000000000E+00 -0.34163845627E+03  0.34163845631E+03  0.50400000000E-02 0. -1.
          2    1    1    2    0  502 -0.25506506244E+02  0.30686953978E+02 -0.19963425538E+03  0.20358316958E+03  0.25500000000E-02 0.  1.
         -2    1    1    2  502    0  0.25506506244E+02 -0.30686953978E+02 -0.13718700802E+03  0.14287248224E+03  0.25500000000E-02 0.  1.
<mgrwt>
<rscale>  0 0.81135413E+02</rscale>
<asrwt>0</asrwt>
<pdfrwt beam="2">  1        1 0.52559744E-01 0.81135413E+02</pdfrwt>
<pdfrwt beam="1">  1       -1 0.74110707E-03 0.81135413E+02</pdfrwt>
<totfact> 0.17868299E+05</totfact>
</mgrwt>
</event>
<event>
 4    1  0.1893769E-002  0.6181082E+02  0.7818608E-02  0.1390386E+00
          1   -1    0    0    0  501  0.00000000000E+00  0.00000000000E+00  0.78659082821E+02  0.78659082983E+02  0.50400000000E-02 0. -1.
         -1   -1    0    0  501    0 -0.00000000000E+00 -0.00000000000E+00 -0.12142836119E+02  0.12142837165E+02  0.50400000000E-02 0. -1.
          2    1    1    2    0  502  0.24589753043E+02  0.15982637589E+02  0.18936498941E+02  0.34909764503E+02  0.25500000000E-02 0. -1.
         -2    1    1    2  502    0 -0.24589753043E+02 -0.15982637589E+02  0.47579747762E+02  0.55892155645E+02  0.25500000000E-02 0. -1.
<mgrwt>
<rscale>  0 0.61810821E+02</rscale>
<asrwt>0</asrwt>
<pdfrwt beam="1">  1        1 0.12101398E-01 0.61810821E+02</pdfrwt>
<pdfrwt beam="2">  1       -1 0.18681287E-02 0.61810821E+02</pdfrwt>
<totfact> 0.28409389E+05</totfact>
</mgrwt>
</event>
<event>
 4    1  0.1893769E-002  0.4793168E+02  0.7818608E-02  0.1456828E+00
          1   -1    0    0    0  501  0.00000000000E+00  0.00000000000E+00  0.44193737140E+01  0.44193765879E+01  0.50400000000E-02 0.  1.
         -1   -1    0    0  501    0 -0.00000000000E+00 -0.00000000000E+00 -0.12996438672E+03  0.12996438682E+03  0.50400000000E-02 0.  1.
          2    1    1    2    0  502  0.21789078983E+02 -0.55850781812E-01 -0.34792910684E+02  0.41052572668E+02  0.25500000000E-02 0. -1.
         -2    1    1    2  502    0 -0.21789078983E+02  0.55850781812E-01 -0.90752102322E+02  0.93331190739E+02  0.25500000000E-02 0. -1.
<mgrwt>
<rscale>  0 0.47931676E+02</rscale>
<asrwt>0</asrwt>
<pdfrwt beam="1">  1        1 0.67990398E-03 0.47931676E+02</pdfrwt>
<pdfrwt beam="2">  1       -1 0.19994518E-01 0.47931676E+02</pdfrwt>
<totfact> 0.39388721E+05</totfact>
</mgrwt>
</event>
<event>
 4    1  0.1893769E-002  0.4149027E+02  0.7818608E-02  0.1497523E+00
          1   -1    0    0    0  501  0.00000000000E+00  0.00000000000E+00  0.88479704387E+02  0.88479704531E+02  0.50400000000E-02 0.  1.
         -1   -1    0    0  501    0 -0.00000000000E+00 -0.00000000000E+00 -0.48639457985E+01  0.48639484097E+01  0.50400000000E-02 0.  1.
          2    1    1    2    0  502  0.19496802334E+02 -0.70687797957E+01  0.42971817212E+02  0.47714463531E+02  0.25500000000E-02 0. -1.
         -2    1    1    2  502    0 -0.19496802334E+02  0.70687797957E+01  0.40643941376E+02  0.45629189409E+02  0.25500000000E-02 0. -1.
<mgrwt>
<rscale>  0 0.41490269E+02</rscale>
<asrwt>0</asrwt>
<pdfrwt beam="1">  1        1 0.13612262E-01 0.41490269E+02</pdfrwt>
<pdfrwt beam="2">  1       -1 0.74829960E-03 0.41490269E+02</pdfrwt>
<totfact> 0.79203222E+05</totfact>
</mgrwt>
</event>
<event>
 4    1  0.1893769E-002  0.4744705E+02  0.7818608E-02  0.1459619E+00
         -1   -1    0    0  501    0 -0.00000000000E+00  0.00000000000E+00  0.23637045635E+02  0.23637046172E+02  0.50400000000E-02 0.  1.
          1   -1    0    0    0  501  0.00000000000E+00 -0.00000000000E+00 -0.23810319810E+02  0.23810320343E+02  0.50400000000E-02 0.  1.
          2    1    1    2    0  502 -0.17766847729E+02 -0.11699454650E+02 -0.10587541244E+02  0.23762031761E+02  0.25500000000E-02 0.  1.
         -2    1    1    2  502    0  0.17766847729E+02  0.11699454650E+02  0.10414267069E+02  0.23685334754E+02  0.25500000000E-02 0.  1.
<mgrwt>
<rscale>  0 0.47447050E+02</rscale>
<asrwt>0</asrwt>
<pdfrwt beam="2">  1        1 0.36631262E-02 0.47447050E+02</pdfrwt>
<pdfrwt beam="1">  1       -1 0.36364686E-02 0.47447050E+02</pdfrwt>
<totfact> 0.49885772E+05</totfact>
</mgrwt>
</event>
<event>
 4    1  0.1893769E-002  0.5655772E+02  0.7818608E-02  0.1412873E+00
          1   -1    0    0    0  501  0.00000000000E+00  0.00000000000E+00  0.69714021814E+03  0.69714021816E+03  0.50400000000E-02 0. -1.
         -1   -1    0    0  501    0 -0.00000000000E+00 -0.00000000000E+00 -0.11471006104E+01  0.11471116825E+01  0.50400000000E-02 0. -1.
          2    1    1    2    0  502  0.19075813371E+02 -0.20508330424E+02  0.39615653911E+03  0.39714541639E+03  0.25500000000E-02 0. -1.
         -2    1    1    2  502    0 -0.19075813371E+02  0.20508330424E+02  0.29983657842E+03  0.30114191345E+03  0.25500000000E-02 0. -1.
<mgrwt>
<rscale>  0 0.56557717E+02</rscale>
<asrwt>0</asrwt>
<pdfrwt beam="1">  1        1 0.10725234E+00 0.56557717E+02</pdfrwt>
<pdfrwt beam="2">  1       -1 0.17647788E-03 0.56557717E+02</pdfrwt>
<totfact> 0.48776646E+05</totfact>
</mgrwt>
</event>
<event>
 4    1  0.1893769E-002  0.6375568E+02  0.7818608E-02  0.1382714E+00
          1   -1    0    0    0  501  0.00000000000E+00  0.00000000000E+00  0.28477453075E+04  0.28477453075E+04  0.50400000000E-02 0.  1.
         -1   -1    0    0  501    0 -0.00000000000E+00 -0.00000000000E+00 -0.35682477332E+00  0.35686036549E+00  0.50400000000E-02 0.  1.
          2    1    1    2    0  502 -0.11306871366E+02  0.28074740185E+02  0.18707736329E+04  0.18710184451E+04  0.25500000000E-02 0.  1.
         -2    1    1    2  502    0  0.11306871366E+02 -0.28074740185E+02  0.97661484981E+03  0.97708372274E+03  0.25500000000E-02 0.  1.
<mgrwt>
<rscale>  0 0.63755683E+02</rscale>
<asrwt>0</asrwt>
<pdfrwt beam="1">  1        1 0.43809532E+00 0.63755683E+02</pdfrwt>
<pdfrwt beam="2">  1       -1 0.54901281E-04 0.63755683E+02</pdfrwt>
<totfact> 0.95124469E+04</totfact>
</mgrwt>
</event>
<event>
 4    1  0.1893769E-002  0.9570324E+02  0.7818608E-02  0.1289600E+00
         -1   -1    0    0  501    0 -0.00000000000E+00  0.00000000000E+00  0.32637757427E+03  0.32637757431E+03  0.50400000000E-02 0.  1.
          1   -1    0    0    0  501  0.00000000000E+00 -0.00000000000E+00 -0.70157308149E+01  0.70157326252E+01  0.50400000000E-02 0.  1.
          2    1    1    2    0  502  0.91297401275E+01 -0.37850920954E+02  0.62780462317E+02  0.73874426070E+02  0.25500000000E-02 0.  1.
         -2    1    1    2  502    0 -0.91297401275E+01  0.37850920954E+02  0.25658138114E+03  0.25951888086E+03  0.25500000000E-02 0.  1.
<mgrwt>
<rscale>  0 0.95703240E+02</rscale>
<asrwt>0</asrwt>
<pdfrwt beam="2">  1        1 0.10793431E-02 0.95703240E+02</pdfrwt>
<pdfrwt beam="1">  1       -1 0.50211947E-01 0.95703240E+02</pdfrwt>
<totfact> 0.51554382E+04</totfact>
</mgrwt>
</event>
<event>
 4    1  0.1893769E-002  0.8325557E+02  0.7818608E-02  0.1320058E+00
         -1   -1    0    0  501    0 -0.00000000000E+00  0.00000000000E+00  0.20848486286E+01  0.20848547206E+01  0.50400000000E-02 0. -1.
          1   -1    0    0    0  501  0.00000000000E+00 -0.00000000000E+00 -0.83117307324E+03  0.83117307326E+03  0.50400000000E-02 0. -1.
          2    1    1    2    0  502 -0.63615380893E+00  0.32502271797E+02 -0.15431130607E+03  0.15769838791E+03  0.25500000000E-02 0.  1.
         -2    1    1    2  502    0  0.63615380893E+00 -0.32502271797E+02 -0.67477691854E+03  0.67555954006E+03  0.25500000000E-02 0.  1.
<mgrwt>
<rscale>  0 0.83255572E+02</rscale>
<asrwt>0</asrwt>
<pdfrwt beam="2">  1        1 0.12787252E+00 0.83255572E+02</pdfrwt>
<pdfrwt beam="1">  1       -1 0.32074708E-03 0.83255572E+02</pdfrwt>
<totfact> 0.17879911E+05</totfact>
</mgrwt>
</event>
<event>
 4    1  0.1893769E-002  0.6330336E+02  0.7818608E-02  0.1384470E+00
         -1   -1    0    0  501    0 -0.00000000000E+00  0.00000000000E+00  0.34397926427E+03  0.34397926431E+03  0.50400000000E-02 0. -1.
          1   -1    0    0    0  501  0.00000000000E+00 -0.00000000000E+00 -0.29124663306E+01  0.29124706915E+01  0.50400000000E-02 0. -1.
          2    1    1    2    0  502  0.22556201914E+01 -0.30701977051E+02  0.13021674604E+03  0.13380620379E+03  0.25500000000E-02 0.  1.
         -2    1    1    2  502    0 -0.22556201914E+01  0.30701977051E+02  0.21085005191E+03  0.21308553121E+03  0.25500000000E-02 0.  1.
<mgrwt>
<rscale>  0 0.63303358E+02</rscale>
<asrwt>0</asrwt>
<pdfrwt beam="2">  1        1 0.44807221E-03 0.63303358E+02</pdfrwt>
<pdfrwt beam="1">  1       -1 0.52919872E-01 0.63303358E+02</pdfrwt>
<totfact> 0.14667650E+05</totfact>
</mgrwt>
</event>
<event>
 4    1  0.1893769E-002  0.4578273E+02  0.7818608E-02  0.1469514E+00
         -1   -1    0    0  501    0 -0.00000000000E+00  0.00000000000E+00  0.81333553837E+00  0.81335115392E+00  0.50400000000E-02 0. -1.
          1   -1    0    0    0  501  0.00000000000E+00 -0.00000000000E+00 -0.64427226412E+03  0.64427226414E+03  0.50400000000E-02 0. -1.
          2    1    1    2    0  502  0.18046062762E+02 -0.11195169937E+02 -0.20132472126E+03  0.20244168446E+03  0.25500000000E-02 0.  1.
         -2    1    1    2  502    0 -0.18046062762E+02  0.11195169937E+02 -0.44213420732E+03  0.44264393083E+03  0.25500000000E-02 0.  1.
<mgrwt>
<rscale>  0 0.45782729E+02</rscale>
<asrwt>0</asrwt>
<pdfrwt beam="2">  1        1 0.99118403E-01 0.45782729E+02</pdfrwt>
<pdfrwt beam="1">  1       -1 0.12513026E-03 0.45782729E+02</pdfrwt>
<totfact> 0.82431037E+05</totfact>
</mgrwt>
</event>
<event>
 4    1  0.1893769E-002  0.6980607E+02  0.7818608E-02  0.1360754E+00
          1   -1    0    0    0  501  0.00000000000E+00  0.00000000000E+00  0.94965641275E+03  0.94965641276E+03  0.50400000000E-02 0.  1.
         -1   -1    0    0  501    0 -0.00000000000E+00 -0.00000000000E+00 -0.12827976613E+01  0.12828075621E+01  0.50400000000E-02 0.  1.
          2    1    1    2    0  502  0.20230079122E+02  0.38448432919E+01  0.85808832885E+03  0.85833537679E+03  0.25500000000E-02 0.  1.
         -2    1    1    2  502    0 -0.20230079122E+02 -0.38448432919E+01  0.90285286234E+02  0.92603843539E+02  0.25500000000E-02 0.  1.
<mgrwt>
<rscale>  0 0.69806067E+02</rscale>
<asrwt>0</asrwt>
<pdfrwt beam="1">  1        1 0.14610096E+00 0.69806067E+02</pdfrwt>
<pdfrwt beam="2">  1       -1 0.19735429E-03 0.69806067E+02</pdfrwt>
<totfact> 0.27644831E+05</totfact>
</mgrwt>
</event>
<event>
 4    1  0.1893769E-002  0.4555881E+02  0.7818608E-02  0.1470883E+00
          1   -1    0    0    0  501  0.00000000000E+00  0.00000000000E+00  0.98862685985E+00  0.98863970668E+00  0.50400000000E-02 0. -1.
         -1   -1    0    0  501    0 -0.00000000000E+00 -0.00000000000E+00 -0.52486736527E+03  0.52486736530E+03  0.50400000000E-02 0. -1.
          2    1    1    2    0  502 -0.10595231777E+02  0.20162369309E+02 -0.25791970765E+03  0.25892345524E+03  0.25500000000E-02 0.  1.
         -2    1    1    2  502    0  0.10595231777E+02 -0.20162369309E+02 -0.26595903077E+03  0.26693254977E+03  0.25500000000E-02 0.  1.
<mgrwt>
<rscale>  0 0.45558813E+02</rscale>
<asrwt>0</asrwt>
<pdfrwt beam="1">  1        1 0.15209785E-03 0.45558813E+02</pdfrwt>
<pdfrwt beam="2">  1       -1 0.80748604E-01 0.45558813E+02</pdfrwt>
<totfact> 0.26608698E+05</totfact>
</mgrwt>
</event>
<event>
 4    1  0.1893769E-002  0.4530442E+02  0.7818608E-02  0.1472450E+00
         -1   -1    0    0  501    0 -0.00000000000E+00  0.00000000000E+00  0.21932228617E+02  0.21932229196E+02  0.50400000000E-02 0. -1.
          1   -1    0    0    0  501  0.00000000000E+00 -0.00000000000E+00 -0.23395822788E+02  0.23395823331E+02  0.50400000000E-02 0. -1.
          2    1    1    2    0  502 -0.20654160584E+02  0.59930783566E+01 -0.78496644920E+01  0.22893854563E+02  0.25500000000E-02 0. -1.
         -2    1    1    2  502    0  0.20654160584E+02 -0.59930783566E+01  0.63860703209E+01  0.22434197964E+02  0.25500000000E-02 0. -1.
<mgrwt>
<rscale>  0 0.45304417E+02</rscale>
<asrwt>0</asrwt>
<pdfrwt beam="2">  1        1 0.35993575E-02 0.45304417E+02</pdfrwt>
<pdfrwt beam="1">  1       -1 0.33741891E-02 0.45304417E+02</pdfrwt>
<totfact> 0.56106873E+05</totfact>
</mgrwt>
</event>
<event>
 4    1  0.1893769E-002  0.5799637E+02  0.7818608E-02  0.1406438E+00
          1   -1    0    0    0  501  0.00000000000E+00  0.00000000000E+00  0.55674936148E+01  0.55674958960E+01  0.50400000000E-02 0. -1.
         -1   -1    0    0  501    0 -0.00000000000E+00 -0.00000000000E+00 -0.15103644319E+03  0.15103644327E+03  0.50400000000E-02 0. -1.
          2    1    1    2    0  502 -0.61339325048E+00 -0.28586351697E+02 -0.59689546601E+02  0.66184573237E+02  0.25500000000E-02 0.  1.
         -2    1    1    2  502    0  0.61339325048E+00  0.28586351697E+02 -0.85779402974E+02  0.90419365933E+02  0.25500000000E-02 0.  1.
<mgrwt>
<rscale>  0 0.57996366E+02</rscale>
<asrwt>0</asrwt>
<pdfrwt beam="1">  1        1 0.85653777E-03 0.57996366E+02</pdfrwt>
<pdfrwt beam="2">  1       -1 0.23236373E-01 0.57996366E+02</pdfrwt>
<totfact> 0.23742518E+05</totfact>
</mgrwt>
</event>
<event>
 4    1  0.1893769E-002  0.4383227E+02  0.7818608E-02  0.1481766E+00
          1   -1    0    0    0  501  0.00000000000E+00  0.00000000000E+00  0.46596562540E+01  0.46596589797E+01  0.50400000000E-02 0. -1.
         -1   -1    0    0  501    0 -0.00000000000E+00 -0.00000000000E+00 -0.10307987822E+03  0.10307987834E+03  0.50400000000E-02 0. -1.
          2    1    1    2    0  502 -0.87671381546E+00  0.21896589472E+02 -0.49937978867E+02  0.54534677018E+02  0.25500000000E-02 0. -1.
         -2    1    1    2  502    0  0.87671381546E+00 -0.21896589472E+02 -0.48482243095E+02  0.53204860301E+02  0.25500000000E-02 0. -1.
<mgrwt>
<rscale>  0 0.43832269E+02</rscale>
<asrwt>0</asrwt>
<pdfrwt beam="1">  1        1 0.71687049E-03 0.43832269E+02</pdfrwt>
<pdfrwt beam="2">  1       -1 0.15858441E-01 0.43832269E+02</pdfrwt>
<totfact> 0.51179542E+05</totfact>
</mgrwt>
</event>
<event>
 4    1  0.1893769E-002  0.4906673E+02  0.7818608E-02  0.1450441E+00
         -1   -1    0    0  501    0 -0.00000000000E+00  0.00000000000E+00  0.85520436530E+03  0.85520436532E+03  0.50400000000E-02 0. -1.
          1   -1    0    0    0  501  0.00000000000E+00 -0.00000000000E+00 -0.70378308442E+00  0.70380113066E+00  0.50400000000E-02 0. -1.
          2    1    1    2    0  502  0.62524078319E+01  0.23563582452E+02  0.47518434789E+03  0.47580931003E+03  0.25500000000E-02 0. -1.
         -2    1    1    2  502    0 -0.62524078319E+01 -0.23563582452E+02  0.37931623433E+03  0.38009885642E+03  0.25500000000E-02 0. -1.
<mgrwt>
<rscale>  0 0.49066734E+02</rscale>
<asrwt>0</asrwt>
<pdfrwt beam="2">  1        1 0.10827582E-03 0.49066734E+02</pdfrwt>
<pdfrwt beam="1">  1       -1 0.13156978E+00 0.49066734E+02</pdfrwt>
<totfact> 0.14860120E+05</totfact>
</mgrwt>
</event>
<event>
 4    1  0.1893769E-002  0.6624374E+02  0.7818608E-02  0.1373353E+00
          1   -1    0    0    0  501  0.00000000000E+00  0.00000000000E+00  0.48328119103E+03  0.48328119106E+03  0.50400000000E-02 0.  1.
         -1   -1    0    0  501    0 -0.00000000000E+00 -0.00000000000E+00 -0.22700176742E+01  0.22700232692E+01  0.50400000000E-02 0.  1.
          2    1    1    2    0  502 -0.24725194475E+02 -0.27742455790E+01  0.80248881352E+02  0.84017347286E+02  0.25500000000E-02 0.  1.
         -2    1    1    2  502    0  0.24725194475E+02  0.27742455790E+01  0.40076229201E+03  0.40153386704E+03  0.25500000000E-02 0.  1.
<mgrwt>
<rscale>  0 0.66243738E+02</rscale>
<asrwt>0</asrwt>
<pdfrwt beam="1">  1        1 0.74350965E-01 0.66243738E+02</pdfrwt>
<pdfrwt beam="2">  1       -1 0.34923386E-03 0.66243738E+02</pdfrwt>
<totfact> 0.31904779E+05</totfact>
</mgrwt>
</event>
<event>
 4    1  0.1893769E-002  0.8841797E+02  0.7818608E-02  0.1306729E+00
          1   -1    0    0    0  501  0.00000000000E+00  0.00000000000E+00  0.20109248318E+03  0.20109248325E+03  0.50400000000E-02 0. -1.
         -1   -1    0    0  501    0 -0.00000000000E+00 -0.00000000000E+00 -0.97190803787E+01  0.97190816855E+01  0.50400000000E-02 0. -1.
          2    1    1    2    0  502  0.21205103463E+02  0.68238414424E+01  0.46399643555E+01  0.22754131507E+02  0.25500000000E-02 0.  1.
         -2    1    1    2  502    0 -0.21205103463E+02 -0.68238414424E+01  0.18673343845E+03  0.18805743342E+03  0.25500000000E-02 0.  1.
<mgrwt>
<rscale>  0 0.88417965E+02</rscale>
<asrwt>0</asrwt>
<pdfrwt beam="1">  1        1 0.30937305E-01 0.88417965E+02</pdfrwt>
<pdfrwt beam="2">  1       -1 0.14952432E-02 0.88417965E+02</pdfrwt>
<totfact> 0.12868623E+05</totfact>
</mgrwt>
</event>
<event>
 4    1  0.1893769E-002  0.4699684E+02  0.7818608E-02  0.1462247E+00
          1   -1    0    0    0  501  0.00000000000E+00  0.00000000000E+00  0.76736507222E+01  0.76736523773E+01  0.50400000000E-02 0.  1.
         -1   -1    0    0  501    0 -0.00000000000E+00 -0.00000000000E+00 -0.71957366877E+02  0.71957367053E+02  0.50400000000E-02 0.  1.
          2    1    1    2    0  502 -0.21619129117E+02 -0.63171682615E+01 -0.43493316981E+02  0.48979199535E+02  0.25500000000E-02 0. -1.
         -2    1    1    2  502    0  0.21619129117E+02  0.63171682615E+01 -0.20790399174E+02  0.30651819896E+02  0.25500000000E-02 0. -1.
<mgrwt>
<rscale>  0 0.46996841E+02</rscale>
<asrwt>0</asrwt>
<pdfrwt beam="1">  1        1 0.11805618E-02 0.46996841E+02</pdfrwt>
<pdfrwt beam="2">  1       -1 0.11070364E-01 0.46996841E+02</pdfrwt>
<totfact> 0.45530835E+05</totfact>
</mgrwt>
</event>
<event>
 4    1  0.1893769E-002  0.4857624E+02  0.7818608E-02  0.1453176E+00
          1   -1    0    0    0  501  0.00000000000E+00  0.00000000000E+00  0.25015795682E+02  0.25015796190E+02  0.50400000000E-02 0.  1.
         -1   -1    0    0  501    0 -0.00000000000E+00 -0.00000000000E+00 -0.23581606907E+02  0.23581607445E+02  0.50400000000E-02 0.  1.
          2    1    1    2    0  502  0.17615691881E+02  0.10213213519E+02  0.13962589779E+02  0.24689598026E+02  0.25500000000E-02 0.  1.
         -2    1    1    2  502    0 -0.17615691881E+02 -0.10213213519E+02 -0.12528401003E+02  0.23907805609E+02  0.25500000000E-02 0.  1.
<mgrwt>
<rscale>  0 0.48576236E+02</rscale>
<asrwt>0</asrwt>
<pdfrwt beam="1">  1        1 0.38485840E-02 0.48576236E+02</pdfrwt>
<pdfrwt beam="2">  1       -1 0.36279396E-02 0.48576236E+02</pdfrwt>
<totfact> 0.47143715E+05</totfact>
</mgrwt>
</event>
<event>
 4    1  0.1893769E-002  0.1552238E+03  0.7818608E-02  0.1194197E+00
         -1   -1    0    0  501    0 -0.00000000000E+00  0.00000000000E+00  0.10023512259E+03  0.10023512272E+03  0.50400000000E-02 0.  1.
          1   -1    0    0    0  501  0.00000000000E+00 -0.00000000000E+00 -0.60094789473E+02  0.60094789684E+02  0.50400000000E-02 0.  1.
          2    1    1    2    0  502 -0.48659806812E+02 -0.24295727601E+02  0.77258882898E+02  0.94482771825E+02  0.25500000000E-02 0. -1.
         -2    1    1    2  502    0  0.48659806812E+02  0.24295727601E+02 -0.37118549776E+02  0.65847140580E+02  0.25500000000E-02 0. -1.
<mgrwt>
<rscale>  0 0.15522382E+03</rscale>
<asrwt>0</asrwt>
<pdfrwt beam="2">  1        1 0.92453524E-02 0.15522382E+03</pdfrwt>
<pdfrwt beam="1">  1       -1 0.15420788E-01 0.15522382E+03</pdfrwt>
<totfact> 0.20568385E+04</totfact>
</mgrwt>
</event>
<event>
 4    1  0.1893769E-002  0.8171439E+02  0.7818608E-02  0.1324255E+00
         -1   -1    0    0  501    0 -0.00000000000E+00  0.00000000000E+00  0.71884300429E+00  0.71886067246E+00  0.50400000000E-02 0. -1.
          1   -1    0    0    0  501  0.00000000000E+00 -0.00000000000E+00 -0.23221899229E+04  0.23221899229E+04  0.50400000000E-02 0. -1.
          2    1    1    2    0  502 -0.23132349642E+02 -0.15837004160E+02 -0.31582472561E+03  0.31706651291E+03  0.25500000000E-02 0. -1.
         -2    1    1    2  502    0  0.23132349642E+02  0.15837004160E+02 -0.20056463543E+04  0.20058422707E+04  0.25500000000E-02 0. -1.
<mgrwt>
<rscale>  0 0.81714393E+02</rscale>
<asrwt>0</asrwt>
<pdfrwt beam="2">  1        1 0.35725398E+00 0.81714393E+02</pdfrwt>
<pdfrwt beam="1">  1       -1 0.11059445E-03 0.81714393E+02</pdfrwt>
<totfact> 0.82089948E+04</totfact>
</mgrwt>
</event>
<event>
 4    1  0.1893769E-002  0.6992807E+02  0.7818608E-02  0.1360338E+00
         -1   -1    0    0  501    0 -0.00000000000E+00  0.00000000000E+00  0.53027329400E+03  0.53027329403E+03  0.50400000000E-02 0.  1.
          1   -1    0    0    0  501  0.00000000000E+00 -0.00000000000E+00 -0.23053818587E+01  0.23053873679E+01  0.50400000000E-02 0.  1.
          2    1    1    2    0  502  0.14233237581E+02  0.28368477766E+02  0.15227679973E+03  0.15554928262E+03  0.25500000000E-02 0. -1.
         -2    1    1    2  502    0 -0.14233237581E+02 -0.28368477766E+02  0.37569111241E+03  0.37702939877E+03  0.25500000000E-02 0. -1.
<mgrwt>
<rscale>  0 0.69928075E+02</rscale>
<asrwt>0</asrwt>
<pdfrwt beam="2">  1        1 0.35467438E-03 0.69928075E+02</pdfrwt>
<pdfrwt beam="1">  1       -1 0.81580549E-01 0.69928075E+02</pdfrwt>
<totfact> 0.90217744E+04</totfact>
</mgrwt>
</event>
<event>
 4    1  0.1893769E-002  0.6378883E+02  0.7818608E-02  0.1382586E+00
          1   -1    0    0    0  501  0.00000000000E+00  0.00000000000E+00  0.26174107008E+03  0.26174107013E+03  0.50400000000E-02 0.  1.
         -1   -1    0    0  501    0 -0.00000000000E+00 -0.00000000000E+00 -0.38864873076E+01  0.38864905755E+01  0.50400000000E-02 0.  1.
          2    1    1    2    0  502 -0.89309484231E+01  0.30402496874E+02  0.11380950369E+03  0.11813837984E+03  0.25500000000E-02 0. -1.
         -2    1    1    2  502    0  0.89309484231E+01 -0.30402496874E+02  0.14404507909E+03  0.14748918086E+03  0.25500000000E-02 0. -1.
<mgrwt>
<rscale>  0 0.63788832E+02</rscale>
<asrwt>0</asrwt>
<pdfrwt beam="1">  1        1 0.40267861E-01 0.63788832E+02</pdfrwt>
<pdfrwt beam="2">  1       -1 0.59792133E-03 0.63788832E+02</pdfrwt>
<totfact> 0.31798233E+05</totfact>
</mgrwt>
</event>
<event>
 4    1  0.1893769E-002  0.4757848E+02  0.7818608E-02  0.1458858E+00
          1   -1    0    0    0  501  0.00000000000E+00  0.00000000000E+00  0.86516769333E+02  0.86516769480E+02  0.50400000000E-02 0. -1.
         -1   -1    0    0  501    0 -0.00000000000E+00 -0.00000000000E+00 -0.65412506473E+01  0.65412525890E+01  0.50400000000E-02 0. -1.
          2    1    1    2    0  502 -0.22949690782E+02 -0.19886900402E+01  0.28369611956E+02  0.36544193576E+02  0.25500000000E-02 0. -1.
         -2    1    1    2  502    0  0.22949690782E+02  0.19886900402E+01  0.51605906730E+02  0.56513828493E+02  0.25500000000E-02 0. -1.
<mgrwt>
<rscale>  0 0.47578481E+02</rscale>
<asrwt>0</asrwt>
<pdfrwt beam="1">  1        1 0.13310272E-01 0.47578481E+02</pdfrwt>
<pdfrwt beam="2">  1       -1 0.10063465E-02 0.47578481E+02</pdfrwt>
<totfact> 0.56158186E+05</totfact>
</mgrwt>
</event>
<event>
 4    1  0.1893769E-002  0.5713341E+02  0.7818608E-02  0.1410271E+00
         -1   -1    0    0  501    0 -0.00000000000E+00  0.00000000000E+00  0.31368662306E+01  0.31368702795E+01  0.50400000000E-02 0.  1.
          1   -1    0    0    0  501  0.00000000000E+00 -0.00000000000E+00 -0.26015006931E+03  0.26015006936E+03  0.50400000000E-02 0.  1.
          2    1    1    2    0  502 -0.11817696301E+02  0.25967936517E+02 -0.12188472491E+03  0.12517938267E+03  0.25500000000E-02 0.  1.
         -2    1    1    2  502    0  0.11817696301E+02 -0.25967936517E+02 -0.13512847817E+03  0.13810755697E+03  0.25500000000E-02 0.  1.
<mgrwt>
<rscale>  0 0.57133406E+02</rscale>
<asrwt>0</asrwt>
<pdfrwt beam="2">  1        1 0.40023071E-01 0.57133406E+02</pdfrwt>
<pdfrwt beam="1">  1       -1 0.48259532E-03 0.57133406E+02</pdfrwt>
<totfact> 0.42075645E+05</totfact>
</mgrwt>
</event>
<event>
 4    1  0.1893769E-002  0.8317421E+02  0.7818608E-02  0.1320277E+00
         -1   -1    0    0  501    0 -0.00000000000E+00  0.00000000000E+00  0.95392575289E+03  0.95392575290E+03  0.50400000000E-02 0.  1.
          1   -1    0    0    0  501  0.00000000000E+00 -0.00000000000E+00 -0.18130173964E+01  0.18130244017E+01  0.50400000000E-02 0.  1.
          2    1    1    2    0  502 -0.21509426898E+02  0.26729162633E+02  0.74612302288E+03  0.74691141969E+03  0.25500000000E-02 0. -1.
         -2    1    1    2  502    0  0.21509426898E+02 -0.26729162633E+02  0.20598971261E+03  0.20882735761E+03  0.25500000000E-02 0. -1.
<mgrwt>
<rscale>  0 0.83174211E+02</rscale>
<asrwt>0</asrwt>
<pdfrwt beam="2">  1        1 0.27892600E-03 0.83174211E+02</pdfrwt>
<pdfrwt beam="1">  1       -1 0.14675796E+00 0.83174211E+02</pdfrwt>
<totfact> 0.34492410E+04</totfact>
</mgrwt>
</event>
<event>
 4    1  0.1893769E-002  0.4577591E+02  0.7818608E-02  0.1469555E+00
          1   -1    0    0    0  501  0.00000000000E+00  0.00000000000E+00  0.28838241423E+03  0.28838241427E+03  0.50400000000E-02 0.  1.
         -1   -1    0    0  501    0 -0.00000000000E+00 -0.00000000000E+00 -0.18165378584E+01  0.18165448502E+01  0.50400000000E-02 0.  1.
          2    1    1    2    0  502  0.19440660525E+02 -0.95893925752E+01  0.18985294283E+03  0.19108646117E+03  0.25500000000E-02 0. -1.
         -2    1    1    2  502    0 -0.19440660525E+02  0.95893925752E+01  0.96712933535E+02  0.99112497956E+02  0.25500000000E-02 0. -1.
<mgrwt>
<rscale>  0 0.45775915E+02</rscale>
<asrwt>0</asrwt>
<pdfrwt beam="1">  1        1 0.44366522E-01 0.45775915E+02</pdfrwt>
<pdfrwt beam="2">  1       -1 0.27946793E-03 0.45775915E+02</pdfrwt>
<totfact> 0.74619828E+05</totfact>
</mgrwt>
</event>
<event>
 4    1  0.1893769E-002  0.9486802E+02  0.7818608E-02  0.1291474E+00
         -1   -1    0    0  501    0 -0.00000000000E+00  0.00000000000E+00  0.17947786389E+02  0.17947787096E+02  0.50400000000E-02 0.  1.
          1   -1    0    0    0  501  0.00000000000E+00 -0.00000000000E+00 -0.12536283197E+03  0.12536283207E+03  0.50400000000E-02 0.  1.
          2    1    1    2    0  502  0.15413820988E+02 -0.29787083971E+02 -0.30364950854E+01  0.33676053181E+02  0.25500000000E-02 0.  1.
         -2    1    1    2  502    0 -0.15413820988E+02  0.29787083971E+02 -0.10437855050E+03  0.10963456599E+03  0.25500000000E-02 0.  1.
<mgrwt>
<rscale>  0 0.94868022E+02</rscale>
<asrwt>0</asrwt>
<pdfrwt beam="2">  1        1 0.19286589E-01 0.94868022E+02</pdfrwt>
<pdfrwt beam="1">  1       -1 0.27611980E-02 0.94868022E+02</pdfrwt>
<totfact> 0.97465874E+04</totfact>
</mgrwt>
</event>
<event>
 4    1  0.1893769E-002  0.4054653E+02  0.7818608E-02  0.1504228E+00
          1   -1    0    0    0  501  0.00000000000E+00  0.00000000000E+00  0.14686841558E+04  0.14686841558E+04  0.50400000000E-02 0. -1.
         -1   -1    0    0  501    0 -0.00000000000E+00 -0.00000000000E+00 -0.27982321205E+00  0.27986859703E+00  0.50400000000E-02 0. -1.
          2    1    1    2    0  502 -0.18565052574E+02 -0.81265459067E+01  0.75415538140E+03  0.75442762491E+03  0.25500000000E-02 0.  1.
         -2    1    1    2  502    0  0.18565052574E+02  0.81265459067E+01  0.71424895120E+03  0.71453639951E+03  0.25500000000E-02 0.  1.
<mgrwt>
<rscale>  0 0.40546529E+02</rscale>
<asrwt>0</asrwt>
<pdfrwt beam="1">  1        1 0.22595041E+00 0.40546529E+02</pdfrwt>
<pdfrwt beam="2">  1       -1 0.43053407E-04 0.40546529E+02</pdfrwt>
<totfact> 0.88281742E+05</totfact>
</mgrwt>
</event>
<event>
 4    1  0.1893769E-002  0.5152108E+02  0.7818608E-02  0.1437306E+00
         -1   -1    0    0  501    0 -0.00000000000E+00  0.00000000000E+00  0.44301701738E+02  0.44301702024E+02  0.50400000000E-02 0.  1.
          1   -1    0    0    0  501  0.00000000000E+00 -0.00000000000E+00 -0.14979228628E+02  0.14979229476E+02  0.50400000000E-02 0.  1.
          2    1    1    2    0  502 -0.24067139598E+02 -0.42107469911E+01  0.24054636657E+02  0.34286778062E+02  0.25500000000E-02 0. -1.
         -2    1    1    2  502    0  0.24067139598E+02  0.42107469911E+01  0.52678364530E+01  0.24994153438E+02  0.25500000000E-02 0. -1.
<mgrwt>
<rscale>  0 0.51521077E+02</rscale>
<asrwt>0</asrwt>
<pdfrwt beam="2">  1        1 0.23044968E-02 0.51521077E+02</pdfrwt>
<pdfrwt beam="1">  1       -1 0.68156464E-02 0.51521077E+02</pdfrwt>
<totfact> 0.38470873E+05</totfact>
</mgrwt>
</event>
<event>
 4    1  0.1893769E-002  0.6188900E+02  0.7818608E-02  0.1390071E+00
         -1   -1    0    0  501    0 -0.00000000000E+00  0.00000000000E+00  0.22129714697E+02  0.22129715271E+02  0.50400000000E-02 0. -1.
          1   -1    0    0    0  501  0.00000000000E+00 -0.00000000000E+00 -0.43270416815E+02  0.43270417108E+02  0.50400000000E-02 0. -1.
          2    1    1    2    0  502 -0.18918892337E+02  0.15457550154E+02 -0.30639975563E+02  0.39187605860E+02  0.25500000000E-02 0.  1.
         -2    1    1    2  502    0  0.18918892337E+02 -0.15457550154E+02  0.94992734450E+01  0.26212526519E+02  0.25500000000E-02 0.  1.
<mgrwt>
<rscale>  0 0.61888998E+02</rscale>
<asrwt>0</asrwt>
<pdfrwt beam="2">  1        1 0.66569873E-02 0.61888998E+02</pdfrwt>
<pdfrwt beam="1">  1       -1 0.34045716E-02 0.61888998E+02</pdfrwt>
<totfact> 0.26387500E+05</totfact>
</mgrwt>
</event>
<event>
 4    1  0.1893769E-002  0.6622769E+02  0.7818608E-02  0.1373412E+00
         -1   -1    0    0  501    0 -0.00000000000E+00  0.00000000000E+00  0.65502730587E+00  0.65504669531E+00  0.50400000000E-02 0. -1.
          1   -1    0    0    0  501  0.00000000000E+00 -0.00000000000E+00 -0.16739918001E+04  0.16739918002E+04  0.50400000000E-02 0. -1.
          2    1    1    2    0  502  0.11204518993E+02 -0.28231101717E+02 -0.50312980132E+03  0.50404576512E+03  0.25500000000E-02 0.  1.
         -2    1    1    2  502    0 -0.11204518993E+02  0.28231101717E+02 -0.11702069715E+04  0.11706010817E+04  0.25500000000E-02 0.  1.
<mgrwt>
<rscale>  0 0.66227685E+02</rscale>
<asrwt>0</asrwt>
<pdfrwt beam="2">  1        1 0.25753378E+00 0.66227685E+02</pdfrwt>
<pdfrwt beam="1">  1       -1 0.10077626E-03 0.66227685E+02</pdfrwt>
<totfact> 0.22997614E+05</totfact>
</mgrwt>
</event>
<event>
 4    1  0.1893769E-002  0.4294237E+02  0.7818608E-02  0.1487612E+00
          1   -1    0    0    0  501  0.00000000000E+00  0.00000000000E+00  0.12057953137E+02  0.12057954190E+02  0.50400000000E-02 0.  1.
         -1   -1    0    0  501    0 -0.00000000000E+00 -0.00000000000E+00 -0.38233008220E+02  0.38233008553E+02  0.50400000000E-02 0.  1.
          2    1    1    2    0  502 -0.74484585573E+01  0.19673989856E+02 -0.18120162994E+02  0.27764828924E+02  0.25500000000E-02 0.  1.
         -2    1    1    2  502    0  0.74484585573E+01 -0.19673989856E+02 -0.80548920897E+01  0.22526133819E+02  0.25500000000E-02 0.  1.
<mgrwt>
<rscale>  0 0.42942373E+02</rscale>
<asrwt>0</asrwt>
<pdfrwt beam="1">  1        1 0.18550698E-02 0.42942373E+02</pdfrwt>
<pdfrwt beam="2">  1       -1 0.58820013E-02 0.42942373E+02</pdfrwt>
<totfact> 0.60868710E+05</totfact>
</mgrwt>
</event>
<event>
 4    1  0.1893769E-002  0.4670237E+02  0.7818608E-02  0.1463986E+00
          1   -1    0    0    0  501  0.00000000000E+00  0.00000000000E+00  0.11583779093E+01  0.11583888736E+01  0.50400000000E-02 0.  1.
         -1   -1    0    0  501    0 -0.00000000000E+00 -0.00000000000E+00 -0.47072304704E+03  0.47072304707E+03  0.50400000000E-02 0.  1.
          2    1    1    2    0  502 -0.20304891510E+02 -0.31811148255E+01 -0.34678189520E+03  0.34739040136E+03  0.25500000000E-02 0. -1.
         -2    1    1    2  502    0  0.20304891510E+02  0.31811148255E+01 -0.12278277393E+03  0.12449103458E+03  0.25500000000E-02 0. -1.
<mgrwt>
<rscale>  0 0.46702367E+02</rscale>
<asrwt>0</asrwt>
<pdfrwt beam="1">  1        1 0.17821321E-03 0.46702367E+02</pdfrwt>
<pdfrwt beam="2">  1       -1 0.72418779E-01 0.46702367E+02</pdfrwt>
<totfact> 0.26763345E+05</totfact>
</mgrwt>
</event>
<event>
 4    1  0.1893769E-002  0.4242215E+02  0.7818608E-02  0.1491108E+00
          1   -1    0    0    0  501  0.00000000000E+00  0.00000000000E+00  0.13231383997E+02  0.13231384957E+02  0.50400000000E-02 0.  1.
         -1   -1    0    0  501    0 -0.00000000000E+00 -0.00000000000E+00 -0.34003213850E+02  0.34003214224E+02  0.50400000000E-02 0.  1.
          2    1    1    2    0  502  0.98147454673E+01  0.18802764492E+02 -0.10173415274E+02  0.23523851002E+02  0.25500000000E-02 0. -1.
         -2    1    1    2  502    0 -0.98147454673E+01 -0.18802764492E+02 -0.10598414579E+02  0.23710748179E+02  0.25500000000E-02 0. -1.
<mgrwt>
<rscale>  0 0.42422146E+02</rscale>
<asrwt>0</asrwt>
<pdfrwt beam="1">  1        1 0.20355976E-02 0.42422146E+02</pdfrwt>
<pdfrwt beam="2">  1       -1 0.52312638E-02 0.42422146E+02</pdfrwt>
<totfact> 0.63354507E+05</totfact>
</mgrwt>
</event>
<event>
 4    1  0.1893769E-002  0.4578915E+02  0.7818608E-02  0.1469474E+00
          1   -1    0    0    0  501  0.00000000000E+00  0.00000000000E+00  0.52348661434E+03  0.52348661436E+03  0.50400000000E-02 0.  1.
         -1   -1    0    0  501    0 -0.00000000000E+00 -0.00000000000E+00 -0.10012827650E+01  0.10012954495E+01  0.50400000000E-02 0.  1.
          2    1    1    2    0  502  0.11650784441E+02  0.18786509882E+02  0.32947841885E+03  0.33021917301E+03  0.25500000000E-02 0.  1.
         -2    1    1    2  502    0 -0.11650784441E+02 -0.18786509882E+02  0.19300691272E+03  0.19426873680E+03  0.25500000000E-02 0.  1.
<mgrwt>
<rscale>  0 0.45789145E+02</rscale>
<asrwt>0</asrwt>
<pdfrwt beam="1">  1        1 0.80536195E-01 0.45789145E+02</pdfrwt>
<pdfrwt beam="2">  1       -1 0.15404488E-03 0.45789145E+02</pdfrwt>
<totfact> 0.81352376E+05</totfact>
</mgrwt>
</event>
<event>
 4    1  0.1893769E-002  0.9492209E+02  0.7818608E-02  0.1291352E+00
         -1   -1    0    0  501    0 -0.00000000000E+00  0.00000000000E+00  0.27881954143E+02  0.27881954599E+02  0.50400000000E-02 0.  1.
          1   -1    0    0    0  501  0.00000000000E+00 -0.00000000000E+00 -0.80788835203E+02  0.80788835360E+02  0.50400000000E-02 0.  1.
          2    1    1    2    0  502  0.71124403082E+01 -0.22533145129E+02  0.20669306746E+02  0.31393465632E+02  0.25500000000E-02 0.  1.
         -2    1    1    2  502    0 -0.71124403082E+01  0.22533145129E+02 -0.73576187806E+02  0.77277324327E+02  0.25500000000E-02 0.  1.
<mgrwt>
<rscale>  0 0.94922087E+02</rscale>
<asrwt>0</asrwt>
<pdfrwt beam="2">  1        1 0.12429052E-01 0.94922087E+02</pdfrwt>
<pdfrwt beam="1">  1       -1 0.42895315E-02 0.94922087E+02</pdfrwt>
<totfact> 0.90312157E+04</totfact>
</mgrwt>
</event>
<event>
 4    1  0.1893769E-002  0.7375467E+02  0.7818608E-02  0.1347771E+00
         -1   -1    0    0  501    0 -0.00000000000E+00  0.00000000000E+00  0.24337741329E+01  0.24337793515E+01  0.50400000000E-02 0. -1.
          1   -1    0    0    0  501  0.00000000000E+00 -0.00000000000E+00 -0.55877668018E+03  0.55877668020E+03  0.50400000000E-02 0. -1.
          2    1    1    2    0  502 -0.22884954966E+02  0.22978826928E+01 -0.49751260046E+03  0.49804396297E+03  0.25500000000E-02 0. -1.
         -2    1    1    2  502    0  0.22884954966E+02 -0.22978826928E+01 -0.58830305590E+02  0.63166496587E+02  0.25500000000E-02 0. -1.
<mgrwt>
<rscale>  0 0.73754666E+02</rscale>
<asrwt>0</asrwt>
<pdfrwt beam="2">  1        1 0.85965541E-01 0.73754666E+02</pdfrwt>
<pdfrwt beam="1">  1       -1 0.37442764E-03 0.73754666E+02</pdfrwt>
<totfact> 0.24550156E+05</totfact>
</mgrwt>
</event>
<event>
 4    1  0.1893769E-002  0.1514514E+03  0.7818608E-02  0.1198701E+00
         -1   -1    0    0  501    0 -0.00000000000E+00  0.00000000000E+00  0.57331469123E+02  0.57331469345E+02  0.50400000000E-02 0.  1.
          1   -1    0    0    0  501  0.00000000000E+00 -0.00000000000E+00 -0.10002152316E+03  0.10002152329E+03  0.50400000000E-02 0.  1.
          2    1    1    2    0  502 -0.34456623501E+00  0.48844276413E+02  0.38776059183E+02  0.62365574129E+02  0.25500000000E-02 0.  1.
         -2    1    1    2  502    0  0.34456623501E+00 -0.48844276413E+02 -0.81466113223E+02  0.94987418506E+02  0.25500000000E-02 0.  1.
<mgrwt>
<rscale>  0 0.15145139E+03</rscale>
<asrwt>0</asrwt>
<pdfrwt beam="2">  1        1 0.15387927E-01 0.15145139E+03</pdfrwt>
<pdfrwt beam="1">  1       -1 0.88202260E-02 0.15145139E+03</pdfrwt>
<totfact> 0.24878982E+04</totfact>
</mgrwt>
</event>
<event>
 4    1  0.1893769E-002  0.4329681E+02  0.7818608E-02  0.1485263E+00
          1   -1    0    0    0  501  0.00000000000E+00  0.00000000000E+00  0.12878596858E+03  0.12878596868E+03  0.50400000000E-02 0. -1.
         -1   -1    0    0  501    0 -0.00000000000E+00 -0.00000000000E+00 -0.36390086291E+01  0.36390121193E+01  0.50400000000E-02 0. -1.
          2    1    1    2    0  502  0.15353477724E+02  0.13829638844E+02  0.82315937745E+02  0.84869911053E+02  0.25500000000E-02 0.  1.
         -2    1    1    2  502    0 -0.15353477724E+02 -0.13829638844E+02  0.42831022208E+02  0.47555069747E+02  0.25500000000E-02 0.  1.
<mgrwt>
<rscale>  0 0.43296812E+02</rscale>
<asrwt>0</asrwt>
<pdfrwt beam="1">  1        1 0.19813226E-01 0.43296812E+02</pdfrwt>
<pdfrwt beam="2">  1       -1 0.55984775E-03 0.43296812E+02</pdfrwt>
<totfact> 0.74940142E+05</totfact>
</mgrwt>
</event>
<event>
 4    1  0.1893769E-002  0.4254613E+02  0.7818608E-02  0.1490269E+00
          1   -1    0    0    0  501  0.00000000000E+00  0.00000000000E+00  0.54853083524E+01  0.54853106678E+01  0.50400000000E-02 0. -1.
         -1   -1    0    0  501    0 -0.00000000000E+00 -0.00000000000E+00 -0.82500974995E+02  0.82500975149E+02  0.50400000000E-02 0. -1.
          2    1    1    2    0  502  0.19844393803E+02 -0.67081063254E+01 -0.30840876187E+02  0.37282144605E+02  0.25500000000E-02 0.  1.
         -2    1    1    2  502    0 -0.19844393803E+02  0.67081063254E+01 -0.46174790455E+02  0.50704141211E+02  0.25500000000E-02 0.  1.
<mgrwt>
<rscale>  0 0.42546135E+02</rscale>
<asrwt>0</asrwt>
<pdfrwt beam="1">  1        1 0.84389384E-03 0.42546135E+02</pdfrwt>
<pdfrwt beam="2">  1       -1 0.12692457E-01 0.42546135E+02</pdfrwt>
<totfact> 0.56975561E+05</totfact>
</mgrwt>
</event>
<event>
 4    1  0.1893769E-002  0.4483959E+02  0.7818608E-02  0.1475346E+00
         -1   -1    0    0  501    0 -0.00000000000E+00  0.00000000000E+00  0.15418882365E+01  0.15418964737E+01  0.50400000000E-02 0.  1.
          1   -1    0    0    0  501  0.00000000000E+00 -0.00000000000E+00 -0.32599364212E+03  0.32599364216E+03  0.50400000000E-02 0.  1.
          2    1    1    2    0  502 -0.15054324687E+02  0.14825459031E+02 -0.21699590520E+03  0.21802213147E+03  0.25500000000E-02 0.  1.
         -2    1    1    2  502    0  0.15054324687E+02 -0.14825459031E+02 -0.10745584868E+03  0.10951340716E+03  0.25500000000E-02 0.  1.
<mgrwt>
<rscale>  0 0.44839586E+02</rscale>
<asrwt>0</asrwt>
<pdfrwt beam="2">  1        1 0.50152814E-01 0.44839586E+02</pdfrwt>
<pdfrwt beam="1">  1       -1 0.23721447E-03 0.44839586E+02</pdfrwt>
<totfact> 0.80178616E+05</totfact>
</mgrwt>
</event>
<event>
 4    1  0.1893769E-002  0.1150719E+03  0.7818608E-02  0.1251456E+00
         -1   -1    0    0  501    0 -0.00000000000E+00  0.00000000000E+00  0.72062241068E+01  0.72062258692E+01  0.50400000000E-02 0. -1.
          1   -1    0    0    0  501  0.00000000000E+00 -0.00000000000E+00 -0.45937847983E+03  0.45937847986E+03  0.50400000000E-02 0. -1.
          2    1    1    2    0  502  0.21034825305E+02 -0.53538354842E+02 -0.23115918815E+03  0.23820871014E+03  0.25500000000E-02 0.  1.
         -2    1    1    2  502    0 -0.21034825305E+02  0.53538354842E+02 -0.22101306758E+03  0.22837599559E+03  0.25500000000E-02 0.  1.
<mgrwt>
<rscale>  0 0.11507189E+03</rscale>
<asrwt>0</asrwt>
<pdfrwt beam="2">  1        1 0.70673590E-01 0.11507189E+03</pdfrwt>
<pdfrwt beam="1">  1       -1 0.11086504E-02 0.11507189E+03</pdfrwt>
<totfact> 0.73772778E+04</totfact>
</mgrwt>
</event>
<event>
 4    1  0.1893769E-002  0.6645049E+02  0.7818608E-02  0.1372597E+00
         -1   -1    0    0  501    0 -0.00000000000E+00  0.00000000000E+00  0.92202635113E+01  0.92202648888E+01  0.50400000000E-02 0.  1.
          1   -1    0    0    0  501  0.00000000000E+00 -0.00000000000E+00 -0.11972726034E+03  0.11972726044E+03  0.50400000000E-02 0.  1.
          2    1    1    2    0  502  0.53804869772E+01  0.32782205752E+02 -0.56306255778E+02  0.65375967299E+02  0.25500000000E-02 0.  1.
         -2    1    1    2  502    0 -0.53804869772E+01 -0.32782205752E+02 -0.54200741047E+02  0.63571558032E+02  0.25500000000E-02 0.  1.
<mgrwt>
<rscale>  0 0.66450492E+02</rscale>
<asrwt>0</asrwt>
<pdfrwt beam="2">  1        1 0.18419578E-01 0.66450492E+02</pdfrwt>
<pdfrwt beam="1">  1       -1 0.14185023E-02 0.66450492E+02</pdfrwt>
<totfact> 0.24975136E+05</totfact>
</mgrwt>
</event>
<event>
 4    1  0.1893769E-002  0.4716920E+02  0.7818608E-02  0.1461237E+00
          1   -1    0    0    0  501  0.00000000000E+00  0.00000000000E+00  0.75890476725E+03  0.75890476726E+03  0.50400000000E-02 0. -1.
         -1   -1    0    0  501    0 -0.00000000000E+00 -0.00000000000E+00 -0.73293346313E+00  0.73295079164E+00  0.50400000000E-02 0. -1.
          2    1    1    2    0  502  0.21942510996E+02 -0.86463130247E+01  0.37864104966E+03  0.37937485026E+03  0.25500000000E-02 0.  1.
         -2    1    1    2  502    0 -0.21942510996E+02  0.86463130247E+01  0.37953078413E+03  0.38026286780E+03  0.25500000000E-02 0.  1.
<mgrwt>
<rscale>  0 0.47169197E+02</rscale>
<asrwt>0</asrwt>
<pdfrwt beam="1">  1        1 0.11675454E+00 0.47169197E+02</pdfrwt>
<pdfrwt beam="2">  1       -1 0.11276037E-03 0.47169197E+02</pdfrwt>
<totfact> 0.76421774E+05</totfact>
</mgrwt>
</event>
<event>
 4    1  0.1893769E-002  0.5963735E+02  0.7818608E-02  0.1399360E+00
         -1   -1    0    0  501    0 -0.00000000000E+00  0.00000000000E+00  0.11850811804E+02  0.11850812876E+02  0.50400000000E-02 0. -1.
          1   -1    0    0    0  501  0.00000000000E+00 -0.00000000000E+00 -0.75028901302E+02  0.75028901471E+02  0.50400000000E-02 0. -1.
          2    1    1    2    0  502  0.17972272526E+02 -0.23756529885E+02 -0.33531645638E+02  0.44852497786E+02  0.25500000000E-02 0.  1.
         -2    1    1    2  502    0 -0.17972272526E+02  0.23756529885E+02 -0.29646443860E+02  0.42027216562E+02  0.25500000000E-02 0.  1.
<mgrwt>
<rscale>  0 0.59637352E+02</rscale>
<asrwt>0</asrwt>
<pdfrwt beam="2">  1        1 0.11542908E-01 0.59637352E+02</pdfrwt>
<pdfrwt beam="1">  1       -1 0.18232020E-02 0.59637352E+02</pdfrwt>
<totfact> 0.30990600E+05</totfact>
</mgrwt>
</event>
<event>
 4    1  0.1893769E-002  0.3901606E+03  0.7818608E-02  0.1047241E+00
         -1   -1    0    0  501    0 -0.00000000000E+00  0.00000000000E+00  0.25174466548E+02  0.25174467053E+02  0.50400000000E-02 0. -1.
          1   -1    0    0    0  501  0.00000000000E+00 -0.00000000000E+00 -0.15117034158E+04  0.15117034158E+04  0.50400000000E-02 0. -1.
          2    1    1    2    0  502 -0.35795502479E+02  0.97117206537E+02 -0.91904520013E+02  0.13841788399E+03  0.25500000000E-02 0.  1.
         -2    1    1    2  502    0  0.35795502479E+02 -0.97117206537E+02 -0.13946244293E+04  0.13984599989E+04  0.25500000000E-02 0.  1.
<mgrwt>
<rscale>  0 0.39016062E+03</rscale>
<asrwt>0</asrwt>
<pdfrwt beam="2">  1        1 0.23256969E+00 0.39016062E+03</pdfrwt>
<pdfrwt beam="1">  1       -1 0.38729961E-02 0.39016062E+03</pdfrwt>
<totfact> 0.18091470E+03</totfact>
</mgrwt>
</event>
<event>
 4    1  0.1893769E-002  0.5168562E+02  0.7818608E-02  0.1436456E+00
          1   -1    0    0    0  501  0.00000000000E+00  0.00000000000E+00  0.84864499838E+01  0.84864514804E+01  0.50400000000E-02 0. -1.
         -1   -1    0    0  501    0 -0.00000000000E+00 -0.00000000000E+00 -0.78696118882E+02  0.78696119043E+02  0.50400000000E-02 0. -1.
          2    1    1    2    0  502 -0.39603232772E+00  0.22252177678E+02 -0.12948499241E+02  0.25748395913E+02  0.25500000000E-02 0.  1.
         -2    1    1    2  502    0  0.39603232772E+00 -0.22252177678E+02 -0.57261169657E+02  0.61434174610E+02  0.25500000000E-02 0.  1.
<mgrwt>
<rscale>  0 0.51685617E+02</rscale>
<asrwt>0</asrwt>
<pdfrwt beam="1">  1        1 0.13056079E-02 0.51685617E+02</pdfrwt>
<pdfrwt beam="2">  1       -1 0.12107095E-01 0.51685617E+02</pdfrwt>
<totfact> 0.35579086E+05</totfact>
</mgrwt>
</event>
<event>
 4    1  0.1893769E-002  0.6631029E+02  0.7818608E-02  0.1373109E+00
          1   -1    0    0    0  501  0.00000000000E+00  0.00000000000E+00  0.47539549800E+03  0.47539549803E+03  0.50400000000E-02 0.  1.
         -1   -1    0    0  501    0 -0.00000000000E+00 -0.00000000000E+00 -0.23123109189E+01  0.23123164116E+01  0.50400000000E-02 0.  1.
          2    1    1    2    0  502  0.17061479476E+02 -0.14659865374E+02  0.61071477770E+02  0.65082494868E+02  0.25500000000E-02 0. -1.
         -2    1    1    2  502    0 -0.17061479476E+02  0.14659865374E+02  0.41201170931E+03  0.41262531957E+03  0.25500000000E-02 0. -1.
<mgrwt>
<rscale>  0 0.66310286E+02</rscale>
<asrwt>0</asrwt>
<pdfrwt beam="1">  1        1 0.73137747E-01 0.66310286E+02</pdfrwt>
<pdfrwt beam="2">  1       -1 0.35574067E-03 0.66310286E+02</pdfrwt>
<totfact> 0.31758547E+05</totfact>
</mgrwt>
</event>
<event>
 4    1  0.1893769E-002  0.6542846E+02  0.7818608E-02  0.1376367E+00
          1   -1    0    0    0  501  0.00000000000E+00  0.00000000000E+00  0.57351987639E+03  0.57351987642E+03  0.50400000000E-02 0. -1.
         -1   -1    0    0  501    0 -0.00000000000E+00 -0.00000000000E+00 -0.18660537678E+01  0.18660605740E+01  0.50400000000E-02 0. -1.
          2    1    1    2    0  502 -0.30246687462E+02 -0.54363671810E+01  0.38446416176E+03  0.38569043010E+03  0.25500000000E-02 0. -1.
         -2    1    1    2  502    0  0.30246687462E+02  0.54363671810E+01  0.18718966087E+03  0.18969550689E+03  0.25500000000E-02 0. -1.
<mgrwt>
<rscale>  0 0.65428461E+02</rscale>
<asrwt>0</asrwt>
<pdfrwt beam="1">  1        1 0.88233897E-01 0.65428461E+02</pdfrwt>
<pdfrwt beam="2">  1       -1 0.28708550E-03 0.65428461E+02</pdfrwt>
<totfact> 0.33488547E+05</totfact>
</mgrwt>
</event>
<event>
 4    1  0.1893769E-002  0.4933551E+02  0.7818608E-02  0.1448959E+00
          1   -1    0    0    0  501  0.00000000000E+00  0.00000000000E+00  0.14582720891E+02  0.14582721762E+02  0.50400000000E-02 0.  1.
         -1   -1    0    0  501    0 -0.00000000000E+00 -0.00000000000E+00 -0.41727343204E+02  0.41727343509E+02  0.50400000000E-02 0.  1.
          2    1    1    2    0  502 -0.15790553805E+02  0.13525249074E+02 -0.28723937083E+02  0.35458969529E+02  0.25500000000E-02 0. -1.
         -2    1    1    2  502    0  0.15790553805E+02 -0.13525249074E+02  0.15793147702E+01  0.20851095742E+02  0.25500000000E-02 0. -1.
<mgrwt>
<rscale>  0 0.49335514E+02</rscale>
<asrwt>0</asrwt>
<pdfrwt beam="1">  1        1 0.22434956E-02 0.49335514E+02</pdfrwt>
<pdfrwt beam="2">  1       -1 0.64195913E-02 0.49335514E+02</pdfrwt>
<totfact> 0.43049648E+05</totfact>
</mgrwt>
</event>
<event>
 4    1  0.1893769E-002  0.6109137E+02  0.7818608E-02  0.1393308E+00
          1   -1    0    0    0  501  0.00000000000E+00  0.00000000000E+00  0.51750589474E+03  0.51750589477E+03  0.50400000000E-02 0.  1.
         -1   -1    0    0  501    0 -0.00000000000E+00 -0.00000000000E+00 -0.18029495223E+01  0.18029565667E+01  0.50400000000E-02 0.  1.
          2    1    1    2    0  502 -0.66575670938E+01 -0.29487662559E+02  0.29509250685E+03  0.29663687068E+03  0.25500000000E-02 0.  1.
         -2    1    1    2  502    0  0.66575670938E+01  0.29487662559E+02  0.22061043837E+03  0.22267198065E+03  0.25500000000E-02 0.  1.
<mgrwt>
<rscale>  0 0.61091369E+02</rscale>
<asrwt>0</asrwt>
<pdfrwt beam="1">  1        1 0.79616219E-01 0.61091369E+02</pdfrwt>
<pdfrwt beam="2">  1       -1 0.27737765E-03 0.61091369E+02</pdfrwt>
<totfact> 0.39531941E+05</totfact>
</mgrwt>
</event>
<event>
 4    1  0.1893769E-002  0.8756560E+02  0.7818608E-02  0.1308856E+00
         -1   -1    0    0  501    0 -0.00000000000E+00  0.00000000000E+00  0.12638047932E+04  0.12638047933E+04  0.50400000000E-02 0. -1.
          1   -1    0    0    0  501  0.00000000000E+00 -0.00000000000E+00 -0.15167915416E+01  0.15167999151E+01  0.50400000000E-02 0. -1.
          2    1    1    2    0  502 -0.14610883623E+02  0.14516949027E+02  0.11894286369E+04  0.11896069527E+04  0.25500000000E-02 0.  1.
         -2    1    1    2  502    0  0.14610883623E+02 -0.14516949027E+02  0.72859364852E+02  0.75714640476E+02  0.25500000000E-02 0.  1.
<mgrwt>
<rscale>  0 0.87565603E+02</rscale>
<asrwt>0</asrwt>
<pdfrwt beam="2">  1        1 0.23335426E-03 0.87565603E+02</pdfrwt>
<pdfrwt beam="1">  1       -1 0.19443061E+00 0.87565603E+02</pdfrwt>
<totfact> 0.20658757E+04</totfact>
</mgrwt>
</event>
<event>
 4    1  0.1893769E-002  0.4981264E+02  0.7818608E-02  0.1446355E+00
         -1   -1    0    0  501    0 -0.00000000000E+00  0.00000000000E+00  0.14431427462E+02  0.14431428343E+02  0.50400000000E-02 0. -1.
          1   -1    0    0    0  501  0.00000000000E+00 -0.00000000000E+00 -0.42984300203E+02  0.42984300498E+02  0.50400000000E-02 0. -1.
          2    1    1    2    0  502  0.21947710081E+02  0.52682089744E+01 -0.26413008438E+02  0.34743388217E+02  0.25500000000E-02 0.  1.
         -2    1    1    2  502    0 -0.21947710081E+02 -0.52682089744E+01 -0.21398643025E+01  0.22672340623E+02  0.25500000000E-02 0.  1.
<mgrwt>
<rscale>  0 0.49812643E+02</rscale>
<asrwt>0</asrwt>
<pdfrwt beam="2">  1        1 0.66129693E-02 0.49812643E+02</pdfrwt>
<pdfrwt beam="1">  1       -1 0.22202197E-02 0.49812643E+02</pdfrwt>
<totfact> 0.46390769E+05</totfact>
</mgrwt>
</event>
<event>
 4    1  0.1893769E-002  0.4343872E+02  0.7818608E-02  0.1484331E+00
         -1   -1    0    0  501    0 -0.00000000000E+00  0.00000000000E+00  0.43657667427E+01  0.43657696519E+01  0.50400000000E-02 0. -1.
          1   -1    0    0    0  501  0.00000000000E+00 -0.00000000000E+00 -0.10805214632E+03  0.10805214644E+03  0.50400000000E-02 0. -1.
          2    1    1    2    0  502  0.75414461466E+01 -0.20367445461E+02 -0.52247326358E+02  0.56581705194E+02  0.25500000000E-02 0. -1.
         -2    1    1    2  502    0 -0.75414461466E+01  0.20367445461E+02 -0.51439053221E+02  0.55836210897E+02  0.25500000000E-02 0. -1.
<mgrwt>
<rscale>  0 0.43438722E+02</rscale>
<asrwt>0</asrwt>
<pdfrwt beam="2">  1        1 0.16623405E-01 0.43438722E+02</pdfrwt>
<pdfrwt beam="1">  1       -1 0.67165674E-03 0.43438722E+02</pdfrwt>
<totfact> 0.72531943E+05</totfact>
</mgrwt>
</event>
<event>
 4    1  0.1893769E-002  0.6402642E+02  0.7818608E-02  0.1381672E+00
         -1   -1    0    0  501    0 -0.00000000000E+00  0.00000000000E+00  0.14909513764E+01  0.14909598949E+01  0.50400000000E-02 0. -1.
          1   -1    0    0    0  501  0.00000000000E+00 -0.00000000000E+00 -0.68737504073E+03  0.68737504075E+03  0.50400000000E-02 0. -1.
          2    1    1    2    0  502 -0.61746354719E+01  0.31386996363E+02 -0.32943506695E+03  0.33098449058E+03  0.25500000000E-02 0. -1.
         -2    1    1    2  502    0  0.61746354719E+01 -0.31386996363E+02 -0.35644902240E+03  0.35788151006E+03  0.25500000000E-02 0. -1.
<mgrwt>
<rscale>  0 0.64026423E+02</rscale>
<asrwt>0</asrwt>
<pdfrwt beam="2">  1        1 0.10574975E+00 0.64026423E+02</pdfrwt>
<pdfrwt beam="1">  1       -1 0.22937834E-03 0.64026423E+02</pdfrwt>
<totfact> 0.35628256E+05</totfact>
</mgrwt>
</event>
<event>
 4    1  0.1893769E-002  0.4618907E+02  0.7818608E-02  0.1467052E+00
          1   -1    0    0    0  501  0.00000000000E+00  0.00000000000E+00  0.88767454688E+02  0.88767454831E+02  0.50400000000E-02 0. -1.
         -1   -1    0    0  501    0 -0.00000000000E+00 -0.00000000000E+00 -0.60084792260E+01  0.60084813398E+01  0.50400000000E-02 0. -1.
          2    1    1    2    0  502 -0.18775749188E+02  0.12069783852E+02  0.29214384862E+02  0.36765319653E+02  0.25500000000E-02 0.  1.
         -2    1    1    2  502    0  0.18775749188E+02 -0.12069783852E+02  0.53544590600E+02  0.58010616519E+02  0.25500000000E-02 0.  1.
<mgrwt>
<rscale>  0 0.46189069E+02</rscale>
<asrwt>0</asrwt>
<pdfrwt beam="1">  1        1 0.13656531E-01 0.46189069E+02</pdfrwt>
<pdfrwt beam="2">  1       -1 0.92438165E-03 0.46189069E+02</pdfrwt>
<totfact> 0.60685004E+05</totfact>
</mgrwt>
</event>
<event>
 4    1  0.1893769E-002  0.4566893E+02  0.7818608E-02  0.1470208E+00
          1   -1    0    0    0  501  0.00000000000E+00  0.00000000000E+00  0.32825263848E+03  0.32825263852E+03  0.50400000000E-02 0.  1.
         -1   -1    0    0  501    0 -0.00000000000E+00 -0.00000000000E+00 -0.15884454308E+01  0.15884534265E+01  0.50400000000E-02 0.  1.
          2    1    1    2    0  502 -0.19313833230E+02 -0.10956991593E+02  0.20177617812E+03  0.20299434938E+03  0.25500000000E-02 0. -1.
         -2    1    1    2  502    0  0.19313833230E+02  0.10956991593E+02  0.12488801494E+03  0.12684674257E+03  0.25500000000E-02 0. -1.
<mgrwt>
<rscale>  0 0.45668927E+02</rscale>
<asrwt>0</asrwt>
<pdfrwt beam="1">  1        1 0.50500371E-01 0.45668927E+02</pdfrwt>
<pdfrwt beam="2">  1       -1 0.24437701E-03 0.45668927E+02</pdfrwt>
<totfact> 0.76730037E+05</totfact>
</mgrwt>
</event>
<event>
 4    1  0.1893769E-002  0.1066681E+03  0.7818608E-02  0.1266868E+00
         -1   -1    0    0  501    0 -0.00000000000E+00  0.00000000000E+00  0.27948552835E+01  0.27948598278E+01  0.50400000000E-02 0. -1.
          1   -1    0    0    0  501  0.00000000000E+00 -0.00000000000E+00 -0.10177687997E+04  0.10177687997E+04  0.50400000000E-02 0. -1.
          2    1    1    2    0  502 -0.23139144097E+02 -0.24622035948E+00 -0.96723646358E+03  0.96751323355E+03  0.25500000000E-02 0. -1.
         -2    1    1    2  502    0  0.23139144097E+02  0.24622035948E+00 -0.47737480801E+02  0.53050425952E+02  0.25500000000E-02 0. -1.
<mgrwt>
<rscale>  0 0.10666806E+03</rscale>
<asrwt>0</asrwt>
<pdfrwt beam="2">  1        1 0.15657952E+00 0.10666806E+03</pdfrwt>
<pdfrwt beam="1">  1       -1 0.42997890E-03 0.10666806E+03</pdfrwt>
<totfact> 0.89123549E+04</totfact>
</mgrwt>
</event>
<event>
 4    1  0.1893769E-002  0.4553731E+02  0.7818608E-02  0.1471015E+00
          1   -1    0    0    0  501  0.00000000000E+00  0.00000000000E+00  0.20743700625E+03  0.20743700631E+03  0.50400000000E-02 0.  1.
         -1   -1    0    0  501    0 -0.00000000000E+00 -0.00000000000E+00 -0.24991251747E+01  0.24991302567E+01  0.50400000000E-02 0.  1.
          2    1    1    2    0  502 -0.91270980478E+01 -0.20354656259E+02  0.81445399226E+02  0.84445065053E+02  0.25500000000E-02 0. -1.
         -2    1    1    2  502    0  0.91270980478E+01  0.20354656259E+02  0.12349248185E+03  0.12549107151E+03  0.25500000000E-02 0. -1.
<mgrwt>
<rscale>  0 0.45537307E+02</rscale>
<asrwt>0</asrwt>
<pdfrwt beam="1">  1        1 0.31913385E-01 0.45537307E+02</pdfrwt>
<pdfrwt beam="2">  1       -1 0.38448121E-03 0.45537307E+02</pdfrwt>
<totfact> 0.71379706E+05</totfact>
</mgrwt>
</event>
<event>
 4    1  0.1893769E-002  0.5466109E+02  0.7818608E-02  0.1421708E+00
          1   -1    0    0    0  501  0.00000000000E+00  0.00000000000E+00  0.40948936244E+03  0.40948936247E+03  0.50400000000E-02 0. -1.
         -1   -1    0    0  501    0 -0.00000000000E+00 -0.00000000000E+00 -0.18241189719E+01  0.18241259346E+01  0.50400000000E-02 0. -1.
          2    1    1    2    0  502  0.14907368925E+02 -0.19959859904E+02  0.11925544055E+03  0.12182974088E+03  0.25500000000E-02 0.  1.
         -2    1    1    2  502    0 -0.14907368925E+02  0.19959859904E+02  0.28840980292E+03  0.28948374753E+03  0.25500000000E-02 0.  1.
<mgrwt>
<rscale>  0 0.54661092E+02</rscale>
<asrwt>0</asrwt>
<pdfrwt beam="1">  1        1 0.62998393E-01 0.54661092E+02</pdfrwt>
<pdfrwt beam="2">  1       -1 0.28063410E-03 0.54661092E+02</pdfrwt>
<totfact> 0.50816023E+05</totfact>
</mgrwt>
</event>
<event>
 4    1  0.1893769E-002  0.4593430E+02  0.7818608E-02  0.1468592E+00
          1   -1    0    0    0  501  0.00000000000E+00  0.00000000000E+00  0.17216939241E+04  0.17216939241E+04  0.50400000000E-02 0. -1.
         -1   -1    0    0  501    0 -0.00000000000E+00 -0.00000000000E+00 -0.30635771720E+00  0.30639917181E+00  0.50400000000E-02 0. -1.
          2    1    1    2    0  502 -0.11252727212E+02  0.20021271485E+02  0.86524379002E+03  0.86554854940E+03  0.25500000000E-02 0.  1.
         -2    1    1    2  502    0  0.11252727212E+02 -0.20021271485E+02  0.85614377631E+03  0.85645177384E+03  0.25500000000E-02 0.  1.
<mgrwt>
<rscale>  0 0.45934297E+02</rscale>
<asrwt>0</asrwt>
<pdfrwt beam="1">  1        1 0.26488399E+00 0.45934297E+02</pdfrwt>
<pdfrwt beam="2">  1       -1 0.47133722E-04 0.45934297E+02</pdfrwt>
<totfact> 0.56224205E+05</totfact>
</mgrwt>
</event>
<event>
 4    1  0.1893769E-002  0.4329889E+02  0.7818608E-02  0.1485250E+00
         -1   -1    0    0  501    0 -0.00000000000E+00  0.00000000000E+00  0.63299267684E+01  0.63299287749E+01  0.50400000000E-02 0. -1.
          1   -1    0    0    0  501  0.00000000000E+00 -0.00000000000E+00 -0.74044839376E+02  0.74044839547E+02  0.50400000000E-02 0. -1.
          2    1    1    2    0  502  0.14485845642E+02 -0.14726598963E+02 -0.21829399479E+02  0.30053870451E+02  0.25500000000E-02 0.  1.
         -2    1    1    2  502    0 -0.14485845642E+02  0.14726598963E+02 -0.45885513128E+02  0.50320897871E+02  0.25500000000E-02 0.  1.
<mgrwt>
<rscale>  0 0.43298891E+02</rscale>
<asrwt>0</asrwt>
<pdfrwt beam="2">  1        1 0.11391513E-01 0.43298891E+02</pdfrwt>
<pdfrwt beam="1">  1       -1 0.97383511E-03 0.43298891E+02</pdfrwt>
<totfact> 0.69808133E+05</totfact>
</mgrwt>
</event>
<event>
 4    1  0.1893769E-002  0.4595161E+02  0.7818608E-02  0.1468487E+00
          1   -1    0    0    0  501  0.00000000000E+00  0.00000000000E+00  0.10398365548E+01  0.10398487689E+01  0.50400000000E-02 0. -1.
         -1   -1    0    0  501    0 -0.00000000000E+00 -0.00000000000E+00 -0.50766099579E+03  0.50766099582E+03  0.50400000000E-02 0. -1.
          2    1    1    2    0  502  0.26996305253E+01  0.20569525381E+02 -0.36261836786E+03  0.36321133531E+03  0.25500000000E-02 0.  1.
         -2    1    1    2  502    0 -0.26996305253E+01 -0.20569525381E+02 -0.14400279137E+03  0.14548950928E+03  0.25500000000E-02 0.  1.
<mgrwt>
<rscale>  0 0.45951608E+02</rscale>
<asrwt>0</asrwt>
<pdfrwt beam="1">  1        1 0.15997620E-03 0.45951608E+02</pdfrwt>
<pdfrwt beam="2">  1       -1 0.78101495E-01 0.45951608E+02</pdfrwt>
<totfact> 0.26610488E+05</totfact>
</mgrwt>
</event>
<event>
 4    1  0.1893769E-002  0.4124180E+02  0.7818608E-02  0.1499267E+00
          1   -1    0    0    0  501  0.00000000000E+00  0.00000000000E+00  0.50672567015E+02  0.50672567266E+02  0.50400000000E-02 0.  1.
         -1   -1    0    0  501    0 -0.00000000000E+00 -0.00000000000E+00 -0.83915514827E+01  0.83915529962E+01  0.50400000000E-02 0.  1.
          2    1    1    2    0  502 -0.74019871299E+01 -0.18592304852E+02  0.28266517840E+02  0.34633210224E+02  0.25500000000E-02 0.  1.
         -2    1    1    2  502    0  0.74019871299E+01  0.18592304852E+02  0.14014497693E+02  0.24430910037E+02  0.25500000000E-02 0.  1.
<mgrwt>
<rscale>  0 0.41241800E+02</rscale>
<asrwt>0</asrwt>
<pdfrwt beam="1">  1        1 0.77957796E-02 0.41241800E+02</pdfrwt>
<pdfrwt beam="2">  1       -1 0.12910081E-02 0.41241800E+02</pdfrwt>
<totfact> 0.75837082E+05</totfact>
</mgrwt>
</event>
<event>
 4    1  0.1893769E-002  0.9043624E+02  0.7818608E-02  0.1301799E+00
          1   -1    0    0    0  501  0.00000000000E+00  0.00000000000E+00  0.56090938210E+01  0.56090960853E+01  0.50400000000E-02 0. -1.
         -1   -1    0    0  501    0 -0.00000000000E+00 -0.00000000000E+00 -0.36452914536E+03  0.36452914540E+03  0.50400000000E-02 0. -1.
          2    1    1    2    0  502 -0.14853587576E+02  0.42578346149E+02 -0.16580330337E+03  0.17182630776E+03  0.25500000000E-02 0.  1.
         -2    1    1    2  502    0  0.14853587576E+02 -0.42578346149E+02 -0.19311674818E+03  0.19831193372E+03  0.25500000000E-02 0.  1.
<mgrwt>
<rscale>  0 0.90436245E+02</rscale>
<asrwt>0</asrwt>
<pdfrwt beam="1">  1        1 0.86293797E-03 0.90436245E+02</pdfrwt>
<pdfrwt beam="2">  1       -1 0.56081389E-01 0.90436245E+02</pdfrwt>
<totfact> 0.56945975E+04</totfact>
</mgrwt>
</event>
<event>
 4    1  0.1893769E-002  0.6079169E+02  0.7818608E-02  0.1394539E+00
         -1   -1    0    0  501    0 -0.00000000000E+00  0.00000000000E+00  0.83275620066E+02  0.83275620218E+02  0.50400000000E-02 0.  1.
          1   -1    0    0    0  501  0.00000000000E+00 -0.00000000000E+00 -0.11094570492E+02  0.11094571637E+02  0.50400000000E-02 0.  1.
          2    1    1    2    0  502  0.38358235056E+01 -0.27074349013E+02  0.56694963151E+02  0.62944839102E+02  0.25500000000E-02 0. -1.
         -2    1    1    2  502    0 -0.38358235056E+01  0.27074349013E+02  0.15486086423E+02  0.31425352753E+02  0.25500000000E-02 0. -1.
<mgrwt>
<rscale>  0 0.60791687E+02</rscale>
<asrwt>0</asrwt>
<pdfrwt beam="2">  1        1 0.17068571E-02 0.60791687E+02</pdfrwt>
<pdfrwt beam="1">  1       -1 0.12811634E-01 0.60791687E+02</pdfrwt>
<totfact> 0.23540862E+05</totfact>
</mgrwt>
</event>
<event>
 4    1  0.1893769E-002  0.5099081E+02  0.7818608E-02  0.1440070E+00
         -1   -1    0    0  501    0 -0.00000000000E+00  0.00000000000E+00  0.55407096080E+01  0.55407119002E+01  0.50400000000E-02 0.  1.
          1   -1    0    0    0  501  0.00000000000E+00 -0.00000000000E+00 -0.11731629881E+03  0.11731629892E+03  0.50400000000E-02 0.  1.
          2    1    1    2    0  502  0.25430678451E+02  0.38838030379E+00 -0.60160949892E+02  0.65316231859E+02  0.25500000000E-02 0. -1.
         -2    1    1    2  502    0 -0.25430678451E+02 -0.38838030379E+00 -0.51614639308E+02  0.57540778958E+02  0.25500000000E-02 0. -1.
<mgrwt>
<rscale>  0 0.50990811E+02</rscale>
<asrwt>0</asrwt>
<pdfrwt beam="2">  1        1 0.18048660E-01 0.50990811E+02</pdfrwt>
<pdfrwt beam="1">  1       -1 0.85241714E-03 0.50990811E+02</pdfrwt>
<totfact> 0.49132299E+05</totfact>
</mgrwt>
</event>
<event>
 4    1  0.1893769E-002  0.4780294E+02  0.7818608E-02  0.1457565E+00
          1   -1    0    0    0  501  0.00000000000E+00  0.00000000000E+00  0.15598321301E+04  0.15598321301E+04  0.50400000000E-02 0.  1.
         -1   -1    0    0  501    0 -0.00000000000E+00 -0.00000000000E+00 -0.36622732293E+00  0.36626200139E+00  0.50400000000E-02 0.  1.
          2    1    1    2    0  502  0.13507487895E+02 -0.19420265084E+02  0.89128314327E+03  0.89159701682E+03  0.25500000000E-02 0.  1.
         -2    1    1    2  502    0 -0.13507487895E+02  0.19420265084E+02  0.66818275953E+03  0.66860137531E+03  0.25500000000E-02 0.  1.
<mgrwt>
<rscale>  0 0.47802937E+02</rscale>
<asrwt>0</asrwt>
<pdfrwt beam="1">  1        1 0.23997691E+00 0.47802937E+02</pdfrwt>
<pdfrwt beam="2">  1       -1 0.56344692E-04 0.47802937E+02</pdfrwt>
<totfact> 0.56054370E+05</totfact>
</mgrwt>
</event>
<event>
 4    1  0.1893769E-002  0.1085877E+03  0.7818608E-02  0.1263208E+00
          1   -1    0    0    0  501  0.00000000000E+00  0.00000000000E+00  0.11022996704E+02  0.11022997857E+02  0.50400000000E-02 0.  1.
         -1   -1    0    0  501    0 -0.00000000000E+00 -0.00000000000E+00 -0.26742465487E+03  0.26742465492E+03  0.50400000000E-02 0.  1.
          2    1    1    2    0  502  0.32075382244E+02  0.41317248634E+02 -0.90875474169E+02  0.10485369327E+03  0.25500000000E-02 0. -1.
         -2    1    1    2  502    0 -0.32075382244E+02 -0.41317248634E+02 -0.16552618400E+03  0.17359395950E+03  0.25500000000E-02 0. -1.
<mgrwt>
<rscale>  0 0.10858768E+03</rscale>
<asrwt>0</asrwt>
<pdfrwt beam="1">  1        1 0.16958459E-02 0.10858768E+03</pdfrwt>
<pdfrwt beam="2">  1       -1 0.41142250E-01 0.10858768E+03</pdfrwt>
<totfact> 0.39967718E+04</totfact>
</mgrwt>
</event>
<event>
 4    1  0.1893769E-002  0.4401371E+02  0.7818608E-02  0.1480594E+00
         -1   -1    0    0  501    0 -0.00000000000E+00  0.00000000000E+00  0.11309311538E+01  0.11309423841E+01  0.50400000000E-02 0.  1.
          1   -1    0    0    0  501  0.00000000000E+00 -0.00000000000E+00 -0.42823052733E+03  0.42823052736E+03  0.50400000000E-02 0.  1.
          2    1    1    2    0  502  0.25592142069E+01  0.21847542919E+02 -0.21999815521E+03  0.22109512208E+03  0.25500000000E-02 0.  1.
         -2    1    1    2  502    0 -0.25592142069E+01 -0.21847542919E+02 -0.20710144098E+03  0.20826634766E+03  0.25500000000E-02 0.  1.
<mgrwt>
<rscale>  0 0.44013710E+02</rscale>
<asrwt>0</asrwt>
<pdfrwt beam="2">  1        1 0.65881491E-01 0.44013710E+02</pdfrwt>
<pdfrwt beam="1">  1       -1 0.17399062E-03 0.44013710E+02</pdfrwt>
<totfact> 0.87536520E+05</totfact>
</mgrwt>
</event>
<event>
 4    1  0.1893769E-002  0.8870466E+02  0.7818608E-02  0.1306019E+00
         -1   -1    0    0  501    0 -0.00000000000E+00  0.00000000000E+00  0.42481497087E+01  0.42481526984E+01  0.50400000000E-02 0. -1.
          1   -1    0    0    0  501  0.00000000000E+00 -0.00000000000E+00 -0.46305537290E+03  0.46305537293E+03  0.50400000000E-02 0. -1.
          2    1    1    2    0  502  0.29269952162E+01 -0.42509170637E+02 -0.16455431011E+03  0.16998152215E+03  0.25500000000E-02 0.  1.
         -2    1    1    2  502    0 -0.29269952162E+01  0.42509170637E+02 -0.29425291308E+03  0.29732200348E+03  0.25500000000E-02 0.  1.
<mgrwt>
<rscale>  0 0.88704662E+02</rscale>
<asrwt>0</asrwt>
<pdfrwt beam="2">  1        1 0.71239249E-01 0.88704662E+02</pdfrwt>
<pdfrwt beam="1">  1       -1 0.65356209E-03 0.88704662E+02</pdfrwt>
<totfact> 0.14831657E+05</totfact>
</mgrwt>
</event>
<event>
 4    1  0.1893769E-002  0.6549572E+02  0.7818608E-02  0.1376116E+00
         -1   -1    0    0  501    0 -0.00000000000E+00  0.00000000000E+00  0.11454527796E+02  0.11454528905E+02  0.50400000000E-02 0.  1.
          1   -1    0    0    0  501  0.00000000000E+00 -0.00000000000E+00 -0.93624301887E+02  0.93624302022E+02  0.50400000000E-02 0.  1.
          2    1    1    2    0  502 -0.12522228982E+02 -0.29675212802E+02 -0.50576115286E+02  0.59961386888E+02  0.25500000000E-02 0. -1.
         -2    1    1    2  502    0  0.12522228982E+02  0.29675212802E+02 -0.31593658804E+02  0.45117444040E+02  0.25500000000E-02 0. -1.
<mgrwt>
<rscale>  0 0.65495717E+02</rscale>
<asrwt>0</asrwt>
<pdfrwt beam="2">  1        1 0.14403738E-01 0.65495717E+02</pdfrwt>
<pdfrwt beam="1">  1       -1 0.17622352E-02 0.65495717E+02</pdfrwt>
<totfact> 0.25006491E+05</totfact>
</mgrwt>
</event>
<event>
 4    1  0.1893769E-002  0.4622931E+02  0.7818608E-02  0.1466810E+00
         -1   -1    0    0  501    0 -0.00000000000E+00  0.00000000000E+00  0.24462821063E+01  0.24462872982E+01  0.50400000000E-02 0. -1.
          1   -1    0    0    0  501  0.00000000000E+00 -0.00000000000E+00 -0.21840762633E+03  0.21840762639E+03  0.50400000000E-02 0. -1.
          2    1    1    2    0  502 -0.17491975754E+02  0.11440614150E+02 -0.15513644674E+03  0.15653809115E+03  0.25500000000E-02 0.  1.
         -2    1    1    2  502    0  0.17491975754E+02 -0.11440614150E+02 -0.60824897491E+02  0.64315822542E+02  0.25500000000E-02 0.  1.
<mgrwt>
<rscale>  0 0.46229309E+02</rscale>
<asrwt>0</asrwt>
<pdfrwt beam="2">  1        1 0.33601158E-01 0.46229309E+02</pdfrwt>
<pdfrwt beam="1">  1       -1 0.37635167E-03 0.46229309E+02</pdfrwt>
<totfact> 0.69376031E+05</totfact>
</mgrwt>
</event>
<event>
 4    1  0.1893769E-002  0.7570844E+02  0.7818608E-02  0.1341691E+00
         -1   -1    0    0  501    0 -0.00000000000E+00  0.00000000000E+00  0.90979042756E+01  0.90979056716E+01  0.50400000000E-02 0.  1.
          1   -1    0    0    0  501  0.00000000000E+00 -0.00000000000E+00 -0.15750241625E+03  0.15750241633E+03  0.50400000000E-02 0.  1.
          2    1    1    2    0  502  0.33748488043E+02  0.32050908778E+01 -0.11126760243E+03  0.11631729197E+03  0.25500000000E-02 0.  1.
         -2    1    1    2  502    0 -0.33748488043E+02 -0.32050908778E+01 -0.37136909538E+02  0.50283030033E+02  0.25500000000E-02 0.  1.
<mgrwt>
<rscale>  0 0.75708442E+02</rscale>
<asrwt>0</asrwt>
<pdfrwt beam="2">  1        1 0.24231139E-01 0.75708442E+02</pdfrwt>
<pdfrwt beam="1">  1       -1 0.13996778E-02 0.75708442E+02</pdfrwt>
<totfact> 0.18571044E+05</totfact>
</mgrwt>
</event>
<event>
 4    1  0.1893769E-002  0.4182513E+02  0.7818608E-02  0.1495194E+00
          1   -1    0    0    0  501  0.00000000000E+00  0.00000000000E+00  0.24664059076E+04  0.24664059076E+04  0.50400000000E-02 0.  1.
         -1   -1    0    0  501    0 -0.00000000000E+00 -0.00000000000E+00 -0.17728105404E+00  0.17735268174E+00  0.50400000000E-02 0.  1.
          2    1    1    2    0  502  0.17117849180E+02  0.11125494150E+02  0.96585213169E+03  0.96606787426E+03  0.25500000000E-02 0. -1.
         -2    1    1    2  502    0 -0.17117849180E+02 -0.11125494150E+02  0.15003764949E+04  0.15005153860E+04  0.25500000000E-02 0. -1.
<mgrwt>
<rscale>  0 0.41825130E+02</rscale>
<asrwt>0</asrwt>
<pdfrwt beam="1">  1        1 0.37942039E+00 0.41825130E+02</pdfrwt>
<pdfrwt beam="2">  1       -1 0.27281436E-04 0.41825130E+02</pdfrwt>
<totfact> 0.40186724E+05</totfact>
</mgrwt>
</event>
<event>
 4    1  0.1893769E-002  0.8480398E+02  0.7818608E-02  0.1315946E+00
          1   -1    0    0    0  501  0.00000000000E+00  0.00000000000E+00  0.15105967753E+03  0.15105967761E+03  0.50400000000E-02 0.  1.
         -1   -1    0    0  501    0 -0.00000000000E+00 -0.00000000000E+00 -0.11902107810E+02  0.11902108877E+02  0.50400000000E-02 0.  1.
          2    1    1    2    0  502 -0.20578585061E+02  0.22598458004E+02  0.13102496779E+02  0.33254231244E+02  0.25500000000E-02 0. -1.
         -2    1    1    2  502    0  0.20578585061E+02 -0.22598458004E+02  0.12605507294E+03  0.12970755524E+03  0.25500000000E-02 0. -1.
<mgrwt>
<rscale>  0 0.84803978E+02</rscale>
<asrwt>0</asrwt>
<pdfrwt beam="1">  1        1 0.23239951E-01 0.84803978E+02</pdfrwt>
<pdfrwt beam="2">  1       -1 0.18310936E-02 0.84803978E+02</pdfrwt>
<totfact> 0.13638171E+05</totfact>
</mgrwt>
</event>
<event>
 4    1  0.1893769E-002  0.4955846E+02  0.7818608E-02  0.1447738E+00
          1   -1    0    0    0  501  0.00000000000E+00  0.00000000000E+00  0.20052195969E+03  0.20052195976E+03  0.50400000000E-02 0.  1.
         -1   -1    0    0  501    0 -0.00000000000E+00 -0.00000000000E+00 -0.30620582339E+01  0.30620623817E+01  0.50400000000E-02 0.  1.
          2    1    1    2    0  502 -0.22291935000E+02 -0.15095600739E+01  0.14274478472E+03  0.14448281112E+03  0.25500000000E-02 0. -1.
         -2    1    1    2  502    0  0.22291935000E+02  0.15095600739E+01  0.54715116745E+02  0.59101211025E+02  0.25500000000E-02 0. -1.
<mgrwt>
<rscale>  0 0.49558464E+02</rscale>
<asrwt>0</asrwt>
<pdfrwt beam="1">  1        1 0.30849535E-01 0.49558464E+02</pdfrwt>
<pdfrwt beam="2">  1       -1 0.47108618E-03 0.49558464E+02</pdfrwt>
<totfact> 0.57493390E+05</totfact>
</mgrwt>
</event>
<event>
 4    1  0.1893769E-002  0.8836583E+02  0.7818608E-02  0.1306858E+00
          1   -1    0    0    0  501  0.00000000000E+00  0.00000000000E+00  0.43377618277E+02  0.43377618569E+02  0.50400000000E-02 0. -1.
         -1   -1    0    0  501    0 -0.00000000000E+00 -0.00000000000E+00 -0.45003163322E+02  0.45003163604E+02  0.50400000000E-02 0. -1.
          2    1    1    2    0  502 -0.42492487180E+02  0.87012025468E+01  0.76033802513E+01  0.44035596853E+02  0.25500000000E-02 0. -1.
         -2    1    1    2  502    0  0.42492487180E+02 -0.87012025468E+01 -0.92289252967E+01  0.44345185320E+02  0.25500000000E-02 0. -1.
<mgrwt>
<rscale>  0 0.88365832E+02</rscale>
<asrwt>0</asrwt>
<pdfrwt beam="1">  1        1 0.66734798E-02 0.88365832E+02</pdfrwt>
<pdfrwt beam="2">  1       -1 0.69235636E-02 0.88365832E+02</pdfrwt>
<totfact> 0.10020591E+05</totfact>
</mgrwt>
</event>
<event>
 4    1  0.1893769E-002  0.4641548E+02  0.7818608E-02  0.1465694E+00
         -1   -1    0    0  501    0 -0.00000000000E+00  0.00000000000E+00  0.24519906478E+01  0.24519958276E+01  0.50400000000E-02 0. -1.
          1   -1    0    0    0  501  0.00000000000E+00 -0.00000000000E+00 -0.21965766221E+03  0.21965766227E+03  0.50400000000E-02 0. -1.
          2    1    1    2    0  502 -0.15201974388E+02 -0.17033220201E+02 -0.88660055789E+02  0.91552368155E+02  0.25500000000E-02 0.  1.
         -2    1    1    2  502    0  0.15201974388E+02  0.17033220201E+02 -0.12854561578E+03  0.13055728995E+03  0.25500000000E-02 0.  1.
<mgrwt>
<rscale>  0 0.46415477E+02</rscale>
<asrwt>0</asrwt>
<pdfrwt beam="2">  1        1 0.33793471E-01 0.46415477E+02</pdfrwt>
<pdfrwt beam="1">  1       -1 0.37722991E-03 0.46415477E+02</pdfrwt>
<totfact> 0.68756291E+05</totfact>
</mgrwt>
</event>
<event>
 4    1  0.1893769E-002  0.4103532E+02  0.7818608E-02  0.1500728E+00
         -1   -1    0    0  501    0 -0.00000000000E+00  0.00000000000E+00  0.80198291551E+00  0.80199875210E+00  0.50400000000E-02 0. -1.
          1   -1    0    0    0  501  0.00000000000E+00 -0.00000000000E+00 -0.52491156893E+03  0.52491156895E+03  0.50400000000E-02 0. -1.
          2    1    1    2    0  502  0.15281247734E+02 -0.13404640925E+02 -0.29777346536E+03  0.29846647653E+03  0.25500000000E-02 0.  1.
         -2    1    1    2  502    0 -0.15281247734E+02  0.13404640925E+02 -0.22633612065E+03  0.22724709118E+03  0.25500000000E-02 0.  1.
<mgrwt>
<rscale>  0 0.41035316E+02</rscale>
<asrwt>0</asrwt>
<pdfrwt beam="2">  1        1 0.80755353E-01 0.41035316E+02</pdfrwt>
<pdfrwt beam="1">  1       -1 0.12338363E-03 0.41035316E+02</pdfrwt>
<totfact> 0.10631742E+06</totfact>
</mgrwt>
</event>
<event>
 4    1  0.1893769E-002  0.7235100E+02  0.7818608E-02  0.1352276E+00
         -1   -1    0    0  501    0 -0.00000000000E+00  0.00000000000E+00  0.20951253315E+03  0.20951253321E+03  0.50400000000E-02 0.  1.
          1   -1    0    0    0  501  0.00000000000E+00 -0.00000000000E+00 -0.62462456625E+01  0.62462476959E+01  0.50400000000E-02 0.  1.
          2    1    1    2    0  502  0.42006400014E+01  0.31915750431E+02  0.52414162489E+02  0.61510201901E+02  0.25500000000E-02 0. -1.
         -2    1    1    2  502    0 -0.42006400014E+01 -0.31915750431E+02  0.15085212500E+03  0.15424857900E+03  0.25500000000E-02 0. -1.
<mgrwt>
<rscale>  0 0.72351005E+02</rscale>
<asrwt>0</asrwt>
<pdfrwt beam="2">  1        1 0.96096104E-03 0.72351005E+02</pdfrwt>
<pdfrwt beam="1">  1       -1 0.32232697E-01 0.72351005E+02</pdfrwt>
<totfact> 0.12455696E+05</totfact>
</mgrwt>
</event>
<event>
 4    1  0.1893769E-002  0.6824705E+02  0.7818608E-02  0.1366158E+00
          1   -1    0    0    0  501  0.00000000000E+00  0.00000000000E+00  0.82068731103E+01  0.82068746579E+01  0.50400000000E-02 0.  1.
         -1   -1    0    0  501    0 -0.00000000000E+00 -0.00000000000E+00 -0.14188289457E+03  0.14188289466E+03  0.50400000000E-02 0.  1.
          2    1    1    2    0  502  0.28078270011E+02  0.15947913856E+02 -0.42577813556E+02  0.53437771444E+02  0.25500000000E-02 0. -1.
         -2    1    1    2  502    0 -0.28078270011E+02 -0.15947913856E+02 -0.91098207904E+02  0.96651997873E+02  0.25500000000E-02 0. -1.
<mgrwt>
<rscale>  0 0.68247052E+02</rscale>
<asrwt>0</asrwt>
<pdfrwt beam="1">  1        1 0.12625961E-02 0.68247052E+02</pdfrwt>
<pdfrwt beam="2">  1       -1 0.21828136E-01 0.68247052E+02</pdfrwt>
<totfact> 0.15949313E+05</totfact>
</mgrwt>
</event>
<event>
 4    1  0.1893769E-002  0.8005645E+02  0.7818608E-02  0.1328891E+00
         -1   -1    0    0  501    0 -0.00000000000E+00  0.00000000000E+00  0.10032848967E+01  0.10032975559E+01  0.50400000000E-02 0.  1.
          1   -1    0    0    0  501  0.00000000000E+00 -0.00000000000E+00 -0.15970025433E+04  0.15970025433E+04  0.50400000000E-02 0.  1.
          2    1    1    2    0  502 -0.92443127941E+01 -0.38860509618E+02 -0.84952110104E+03  0.85045969784E+03  0.25500000000E-02 0.  1.
         -2    1    1    2  502    0  0.92443127941E+01  0.38860509618E+02 -0.74647815736E+03  0.74754614302E+03  0.25500000000E-02 0.  1.
<mgrwt>
<rscale>  0 0.80056446E+02</rscale>
<asrwt>0</asrwt>
<pdfrwt beam="2">  1        1 0.24569067E+00 0.80056446E+02</pdfrwt>
<pdfrwt beam="1">  1       -1 0.15435377E-03 0.80056446E+02</pdfrwt>
<totfact> 0.14731854E+05</totfact>
</mgrwt>
</event>
<event>
 4    1  0.1893769E-002  0.5481878E+02  0.7818608E-02  0.1420958E+00
         -1   -1    0    0  501    0 -0.00000000000E+00  0.00000000000E+00  0.33904676637E+01  0.33904714098E+01  0.50400000000E-02 0.  1.
          1   -1    0    0    0  501  0.00000000000E+00 -0.00000000000E+00 -0.22158423515E+03  0.22158423521E+03  0.50400000000E-02 0.  1.
          2    1    1    2    0  502  0.21877472718E+02  0.16502571712E+02 -0.10679017520E+03  0.11025017103E+03  0.25500000000E-02 0.  1.
         -2    1    1    2  502    0 -0.21877472718E+02 -0.16502571712E+02 -0.11140359229E+03  0.11472453559E+03  0.25500000000E-02 0.  1.
<mgrwt>
<rscale>  0 0.54818778E+02</rscale>
<asrwt>0</asrwt>
<pdfrwt beam="2">  1        1 0.34089871E-01 0.54818778E+02</pdfrwt>
<pdfrwt beam="1">  1       -1 0.52161088E-03 0.54818778E+02</pdfrwt>
<totfact> 0.45398335E+05</totfact>
</mgrwt>
</event>
<event>
 4    1  0.1893769E-002  0.5326314E+02  0.7818608E-02  0.1428496E+00
          1   -1    0    0    0  501  0.00000000000E+00  0.00000000000E+00  0.84032657071E+01  0.84032672185E+01  0.50400000000E-02 0.  1.
         -1   -1    0    0  501    0 -0.00000000000E+00 -0.00000000000E+00 -0.84400563145E+02  0.84400563295E+02  0.50400000000E-02 0.  1.
          2    1    1    2    0  502  0.14695795144E+02  0.18742030192E+02 -0.17235216559E+02  0.29398686824E+02  0.25500000000E-02 0. -1.
         -2    1    1    2  502    0 -0.14695795144E+02 -0.18742030192E+02 -0.58762080879E+02  0.63405143690E+02  0.25500000000E-02 0. -1.
<mgrwt>
<rscale>  0 0.53263137E+02</rscale>
<asrwt>0</asrwt>
<pdfrwt beam="1">  1        1 0.12928103E-02 0.53263137E+02</pdfrwt>
<pdfrwt beam="2">  1       -1 0.12984702E-01 0.53263137E+02</pdfrwt>
<totfact> 0.32684317E+05</totfact>
</mgrwt>
</event>
<event>
 4    1  0.1893769E-002  0.9726561E+02  0.7818608E-02  0.1286153E+00
         -1   -1    0    0  501    0 -0.00000000000E+00  0.00000000000E+00  0.20096823272E+03  0.20096823278E+03  0.50400000000E-02 0. -1.
          1   -1    0    0    0  501  0.00000000000E+00 -0.00000000000E+00 -0.11768774000E+02  0.11768775080E+02  0.50400000000E-02 0. -1.
          2    1    1    2    0  502  0.21425388609E+02 -0.39782445157E+02  0.55263407470E+02  0.71384413085E+02  0.25500000000E-02 0. -1.
         -2    1    1    2  502    0 -0.21425388609E+02  0.39782445157E+02  0.13393605125E+03  0.14135259477E+03  0.25500000000E-02 0. -1.
<mgrwt>
<rscale>  0 0.97265612E+02</rscale>
<asrwt>0</asrwt>
<pdfrwt beam="2">  1        1 0.18105807E-02 0.97265612E+02</pdfrwt>
<pdfrwt beam="1">  1       -1 0.30918190E-01 0.97265612E+02</pdfrwt>
<totfact> 0.58557032E+04</totfact>
</mgrwt>
</event>
<event>
 4    1  0.1893769E-002  0.6291611E+02  0.7818608E-02  0.1385986E+00
         -1   -1    0    0  501    0 -0.00000000000E+00  0.00000000000E+00  0.25649546428E+01  0.25649595945E+01  0.50400000000E-02 0. -1.
          1   -1    0    0    0  501  0.00000000000E+00 -0.00000000000E+00 -0.38581899721E+03  0.38581899725E+03  0.50400000000E-02 0. -1.
          2    1    1    2    0  502 -0.15435110414E+02  0.22352520622E+02 -0.28956882588E+03  0.29084013262E+03  0.25500000000E-02 0.  1.
         -2    1    1    2  502    0  0.15435110414E+02 -0.22352520622E+02 -0.93685216689E+02  0.97543824224E+02  0.25500000000E-02 0.  1.
<mgrwt>
<rscale>  0 0.62916109E+02</rscale>
<asrwt>0</asrwt>
<pdfrwt beam="2">  1        1 0.59356723E-01 0.62916109E+02</pdfrwt>
<pdfrwt beam="1">  1       -1 0.39460910E-03 0.62916109E+02</pdfrwt>
<totfact> 0.35255085E+05</totfact>
</mgrwt>
</event>
<event>
 4    1  0.1893769E-002  0.4290160E+02  0.7818608E-02  0.1487883E+00
          1   -1    0    0    0  501  0.00000000000E+00  0.00000000000E+00  0.45422343795E+03  0.45422343797E+03  0.50400000000E-02 0. -1.
         -1   -1    0    0  501    0 -0.00000000000E+00 -0.00000000000E+00 -0.10130122752E+01  0.10130248128E+01  0.50400000000E-02 0. -1.
          2    1    1    2    0  502  0.19820140916E+02  0.45045731619E+01  0.29935766582E+03  0.30004689843E+03  0.25500000000E-02 0. -1.
         -2    1    1    2  502    0 -0.19820140916E+02 -0.45045731619E+01  0.15385275985E+03  0.15518956436E+03  0.25500000000E-02 0. -1.
<mgrwt>
<rscale>  0 0.42901598E+02</rscale>
<asrwt>0</asrwt>
<pdfrwt beam="1">  1        1 0.69880620E-01 0.42901598E+02</pdfrwt>
<pdfrwt beam="2">  1       -1 0.15584881E-03 0.42901598E+02</pdfrwt>
<totfact> 0.93913047E+05</totfact>
</mgrwt>
</event>
<event>
 4    1  0.1893769E-002  0.4690728E+02  0.7818608E-02  0.1462774E+00
         -1   -1    0    0  501    0 -0.00000000000E+00  0.00000000000E+00  0.39196225843E+01  0.39196258246E+01  0.50400000000E-02 0. -1.
          1   -1    0    0    0  501  0.00000000000E+00 -0.00000000000E+00 -0.14033827270E+03  0.14033827279E+03  0.50400000000E-02 0. -1.
          2    1    1    2    0  502 -0.20823428583E+02  0.10572882741E+02 -0.74856900309E+02  0.78415282680E+02  0.25500000000E-02 0. -1.
         -2    1    1    2  502    0  0.20823428583E+02 -0.10572882741E+02 -0.61561749806E+02  0.65842615934E+02  0.25500000000E-02 0. -1.
<mgrwt>
<rscale>  0 0.46907283E+02</rscale>
<asrwt>0</asrwt>
<pdfrwt beam="2">  1        1 0.21590500E-01 0.46907283E+02</pdfrwt>
<pdfrwt beam="1">  1       -1 0.60301922E-03 0.46907283E+02</pdfrwt>
<totfact> 0.62215303E+05</totfact>
</mgrwt>
</event>
<event>
 4    1  0.1893769E-002  0.5480733E+02  0.7818608E-02  0.1421012E+00
         -1   -1    0    0  501    0 -0.00000000000E+00  0.00000000000E+00  0.71474141477E+02  0.71474141654E+02  0.50400000000E-02 0. -1.
          1   -1    0    0    0  501  0.00000000000E+00 -0.00000000000E+00 -0.10506749212E+02  0.10506750421E+02  0.50400000000E-02 0. -1.
          2    1    1    2    0  502  0.26618016585E+02 -0.12466793877E+01  0.40048398181E+02  0.48103505276E+02  0.25500000000E-02 0. -1.
         -2    1    1    2  502    0 -0.26618016585E+02  0.12466793877E+01  0.20918994083E+02  0.33877386799E+02  0.25500000000E-02 0. -1.
<mgrwt>
<rscale>  0 0.54807333E+02</rscale>
<asrwt>0</asrwt>
<pdfrwt beam="2">  1        1 0.16164231E-02 0.54807333E+02</pdfrwt>
<pdfrwt beam="1">  1       -1 0.10996022E-01 0.54807333E+02</pdfrwt>
<totfact> 0.31172760E+05</totfact>
</mgrwt>
</event>
<event>
 4    1  0.1893769E-002  0.4968483E+02  0.7818608E-02  0.1447049E+00
         -1   -1    0    0  501    0 -0.00000000000E+00  0.00000000000E+00  0.30952468895E+01  0.30952509928E+01  0.50400000000E-02 0. -1.
          1   -1    0    0    0  501  0.00000000000E+00 -0.00000000000E+00 -0.19938475918E+03  0.19938475924E+03  0.50400000000E-02 0. -1.
          2    1    1    2    0  502 -0.17729761939E+02 -0.11899028029E+02 -0.46400761341E+02  0.51077999040E+02  0.25500000000E-02 0.  1.
         -2    1    1    2  502    0  0.17729761939E+02  0.11899028029E+02 -0.14988875095E+03  0.15140201119E+03  0.25500000000E-02 0.  1.
<mgrwt>
<rscale>  0 0.49684826E+02</rscale>
<asrwt>0</asrwt>
<pdfrwt beam="2">  1        1 0.30674569E-01 0.49684826E+02</pdfrwt>
<pdfrwt beam="1">  1       -1 0.47619231E-03 0.49684826E+02</pdfrwt>
<totfact> 0.57072387E+05</totfact>
</mgrwt>
</event>
<event>
 4    1  0.1893769E-002  0.6831706E+02  0.7818608E-02  0.1365911E+00
         -1   -1    0    0  501    0 -0.00000000000E+00  0.00000000000E+00  0.11437645417E+02  0.11437646527E+02  0.50400000000E-02 0. -1.
          1   -1    0    0    0  501  0.00000000000E+00 -0.00000000000E+00 -0.10201444508E+03  0.10201444520E+03  0.50400000000E-02 0. -1.
          2    1    1    2    0  502  0.72726343551E+01 -0.28081681739E+02 -0.75241890703E+02  0.80640028415E+02  0.25500000000E-02 0. -1.
         -2    1    1    2  502    0 -0.72726343551E+01  0.28081681739E+02 -0.15334908961E+02  0.32812063317E+02  0.25500000000E-02 0. -1.
<mgrwt>
<rscale>  0 0.68317058E+02</rscale>
<asrwt>0</asrwt>
<pdfrwt beam="2">  1        1 0.15694529E-01 0.68317058E+02</pdfrwt>
<pdfrwt beam="1">  1       -1 0.17596379E-02 0.68317058E+02</pdfrwt>
<totfact> 0.22670404E+05</totfact>
</mgrwt>
</event>
<event>
 4    1  0.1893769E-002  0.7065108E+02  0.7818608E-02  0.1357893E+00
          1   -1    0    0    0  501  0.00000000000E+00  0.00000000000E+00  0.83197081193E+03  0.83197081194E+03  0.50400000000E-02 0. -1.
         -1   -1    0    0  501    0 -0.00000000000E+00 -0.00000000000E+00 -0.14999207656E+01  0.14999292332E+01  0.50400000000E-02 0. -1.
          2    1    1    2    0  502 -0.24691989391E+02 -0.40830073811E+01  0.12113066729E+03  0.12368914202E+03  0.25500000000E-02 0. -1.
         -2    1    1    2  502    0  0.24691989391E+02  0.40830073811E+01  0.70934022388E+03  0.70978159916E+03  0.25500000000E-02 0. -1.
<mgrwt>
<rscale>  0 0.70651082E+02</rscale>
<asrwt>0</asrwt>
<pdfrwt beam="1">  1        1 0.12799566E+00 0.70651082E+02</pdfrwt>
<pdfrwt beam="2">  1       -1 0.23075742E-03 0.70651082E+02</pdfrwt>
<totfact> 0.27389758E+05</totfact>
</mgrwt>
</event>
<event>
 4    1  0.1893769E-002  0.4066683E+02  0.7818608E-02  0.1503361E+00
          1   -1    0    0    0  501  0.00000000000E+00  0.00000000000E+00  0.44280766805E+01  0.44280795487E+01  0.50400000000E-02 0.  1.
         -1   -1    0    0  501    0 -0.00000000000E+00 -0.00000000000E+00 -0.93369582003E+02  0.93369582139E+02  0.50400000000E-02 0.  1.
          2    1    1    2    0  502  0.19823810254E+02 -0.41417350081E+01 -0.48846251030E+02  0.52878101971E+02  0.25500000000E-02 0. -1.
         -2    1    1    2  502    0 -0.19823810254E+02  0.41417350081E+01 -0.40095254292E+02  0.44919559716E+02  0.25500000000E-02 0. -1.
<mgrwt>
<rscale>  0 0.40666832E+02</rscale>
<asrwt>0</asrwt>
<pdfrwt beam="1">  1        1 0.68124287E-03 0.40666832E+02</pdfrwt>
<pdfrwt beam="2">  1       -1 0.14364550E-01 0.40666832E+02</pdfrwt>
<totfact> 0.62400471E+05</totfact>
</mgrwt>
</event>
<event>
 4    1  0.1893769E-002  0.4196527E+02  0.7818608E-02  0.1494228E+00
          1   -1    0    0    0  501  0.00000000000E+00  0.00000000000E+00  0.34286367194E+02  0.34286367564E+02  0.50400000000E-02 0.  1.
         -1   -1    0    0  501    0 -0.00000000000E+00 -0.00000000000E+00 -0.12840988963E+02  0.12840989953E+02  0.50400000000E-02 0.  1.
          2    1    1    2    0  502  0.71467841810E+01 -0.19302632319E+02  0.15298553193E+02  0.25645932911E+02  0.25500000000E-02 0. -1.
         -2    1    1    2  502    0 -0.71467841810E+01  0.19302632319E+02  0.61468250379E+01  0.21481424606E+02  0.25500000000E-02 0. -1.
<mgrwt>
<rscale>  0 0.41965266E+02</rscale>
<asrwt>0</asrwt>
<pdfrwt beam="1">  1        1 0.52748257E-02 0.41965266E+02</pdfrwt>
<pdfrwt beam="2">  1       -1 0.19755369E-02 0.41965266E+02</pdfrwt>
<totfact> 0.70256363E+05</totfact>
</mgrwt>
</event>
<event>
 4    1  0.1893769E-002  0.9079254E+02  0.7818608E-02  0.1300944E+00
         -1   -1    0    0  501    0 -0.00000000000E+00  0.00000000000E+00  0.77664696116E+02  0.77664696279E+02  0.50400000000E-02 0. -1.
          1   -1    0    0    0  501  0.00000000000E+00 -0.00000000000E+00 -0.26534853991E+02  0.26534854469E+02  0.50400000000E-02 0. -1.
          2    1    1    2    0  502 -0.28302543994E+02  0.33329370374E+02  0.39571176300E+02  0.58972526878E+02  0.25500000000E-02 0. -1.
         -2    1    1    2  502    0  0.28302543994E+02 -0.33329370374E+02  0.11558665825E+02  0.45227023871E+02  0.25500000000E-02 0. -1.
<mgrwt>
<rscale>  0 0.90792542E+02</rscale>
<asrwt>0</asrwt>
<pdfrwt beam="2">  1        1 0.40822854E-02 0.90792542E+02</pdfrwt>
<pdfrwt beam="1">  1       -1 0.11948414E-01 0.90792542E+02</pdfrwt>
<totfact> 0.85997167E+04</totfact>
</mgrwt>
</event>
<event>
 4    1  0.1893769E-002  0.5528081E+02  0.7818608E-02  0.1418776E+00
          1   -1    0    0    0  501  0.00000000000E+00  0.00000000000E+00  0.12542204724E+03  0.12542204734E+03  0.50400000000E-02 0.  1.
         -1   -1    0    0  501    0 -0.00000000000E+00 -0.00000000000E+00 -0.60913676623E+01  0.60913697474E+01  0.50400000000E-02 0.  1.
          2    1    1    2    0  502 -0.15013297825E+02  0.14184302043E+02  0.15966773529E+02  0.26106156351E+02  0.25500000000E-02 0. -1.
         -2    1    1    2  502    0  0.15013297825E+02 -0.14184302043E+02  0.10336390605E+03  0.10540726074E+03  0.25500000000E-02 0. -1.
<mgrwt>
<rscale>  0 0.55280808E+02</rscale>
<asrwt>0</asrwt>
<pdfrwt beam="1">  1        1 0.19295700E-01 0.55280808E+02</pdfrwt>
<pdfrwt beam="2">  1       -1 0.93713365E-03 0.55280808E+02</pdfrwt>
<totfact> 0.40423435E+05</totfact>
</mgrwt>
</event>
<event>
 4    1  0.1893769E-002  0.5507734E+02  0.7818608E-02  0.1419733E+00
          1   -1    0    0    0  501  0.00000000000E+00  0.00000000000E+00  0.79616938147E+03  0.79616938149E+03  0.50400000000E-02 0. -1.
         -1   -1    0    0  501    0 -0.00000000000E+00 -0.00000000000E+00 -0.95252727608E+00  0.95254060978E+00  0.50400000000E-02 0. -1.
          2    1    1    2    0  502  0.85929483954E+01 -0.22819954326E+02  0.58283126598E+03  0.58334112977E+03  0.25500000000E-02 0.  1.
         -2    1    1    2  502    0 -0.85929483954E+01  0.22819954326E+02  0.21238558822E+03  0.21378079233E+03  0.25500000000E-02 0.  1.
<mgrwt>
<rscale>  0 0.55077341E+02</rscale>
<asrwt>0</asrwt>
<pdfrwt beam="1">  1        1 0.12248684E+00 0.55077341E+02</pdfrwt>
<pdfrwt beam="2">  1       -1 0.14654459E-03 0.55077341E+02</pdfrwt>
<totfact> 0.51814342E+05</totfact>
</mgrwt>
</event>
<event>
 4    1  0.1893769E-002  0.4305395E+02  0.7818608E-02  0.1486869E+00
         -1   -1    0    0  501    0 -0.00000000000E+00  0.00000000000E+00  0.81119354479E+00  0.81120920157E+00  0.50400000000E-02 0. -1.
          1   -1    0    0    0  501  0.00000000000E+00 -0.00000000000E+00 -0.57126454206E+03  0.57126454208E+03  0.50400000000E-02 0. -1.
          2    1    1    2    0  502 -0.20316985737E+02 -0.65618598171E+01 -0.24866170771E+03  0.24957660708E+03  0.25500000000E-02 0. -1.
         -2    1    1    2  502    0  0.20316985737E+02  0.65618598171E+01 -0.32179164080E+03  0.32249914420E+03  0.25500000000E-02 0. -1.
<mgrwt>
<rscale>  0 0.43053947E+02</rscale>
<asrwt>0</asrwt>
<pdfrwt beam="2">  1        1 0.87886532E-01 0.43053947E+02</pdfrwt>
<pdfrwt beam="1">  1       -1 0.12480067E-03 0.43053947E+02</pdfrwt>
<totfact> 0.95255822E+05</totfact>
</mgrwt>
</event>
<event>
 4    1  0.1893769E-002  0.5819038E+02  0.7818608E-02  0.1405587E+00
          1   -1    0    0    0  501  0.00000000000E+00  0.00000000000E+00  0.48548530253E+02  0.48548530515E+02  0.50400000000E-02 0. -1.
         -1   -1    0    0  501    0 -0.00000000000E+00 -0.00000000000E+00 -0.17436780209E+02  0.17436780938E+02  0.50400000000E-02 0. -1.
          2    1    1    2    0  502 -0.19030231915E+02 -0.21265007614E+02  0.91232570272E+01  0.29959707957E+02  0.25500000000E-02 0.  1.
         -2    1    1    2  502    0  0.19030231915E+02  0.21265007614E+02  0.21988493017E+02  0.36025603496E+02  0.25500000000E-02 0.  1.
<mgrwt>
<rscale>  0 0.58190380E+02</rscale>
<asrwt>0</asrwt>
<pdfrwt beam="1">  1        1 0.74690045E-02 0.58190380E+02</pdfrwt>
<pdfrwt beam="2">  1       -1 0.26825817E-02 0.58190380E+02</pdfrwt>
<totfact> 0.31413129E+05</totfact>
</mgrwt>
</event>
<event>
 4    1  0.1893769E-002  0.8930642E+02  0.7818608E-02  0.1304540E+00
         -1   -1    0    0  501    0 -0.00000000000E+00  0.00000000000E+00  0.14060120238E+02  0.14060121142E+02  0.50400000000E-02 0.  1.
          1   -1    0    0    0  501  0.00000000000E+00 -0.00000000000E+00 -0.14181309288E+03  0.14181309297E+03  0.50400000000E-02 0.  1.
          2    1    1    2    0  502 -0.24098728857E+02  0.11035704037E+02 -0.12659774650E+03  0.12934266473E+03  0.25500000000E-02 0.  1.
         -2    1    1    2  502    0  0.24098728857E+02 -0.11035704037E+02 -0.11552261415E+01  0.26530549373E+02  0.25500000000E-02 0.  1.
<mgrwt>
<rscale>  0 0.89306421E+02</rscale>
<asrwt>0</asrwt>
<pdfrwt beam="2">  1        1 0.21817398E-01 0.89306421E+02</pdfrwt>
<pdfrwt beam="1">  1       -1 0.21630956E-02 0.89306421E+02</pdfrwt>
<totfact> 0.11736724E+05</totfact>
</mgrwt>
</event>
<event>
 4    1  0.1893769E-002  0.1035099E+03  0.7818608E-02  0.1273084E+00
         -1   -1    0    0  501    0 -0.00000000000E+00  0.00000000000E+00  0.12861399633E+01  0.12861498384E+01  0.50400000000E-02 0. -1.
          1   -1    0    0    0  501  0.00000000000E+00 -0.00000000000E+00 -0.20826392186E+04  0.20826392186E+04  0.50400000000E-02 0. -1.
          2    1    1    2    0  502 -0.45625443999E+02  0.20837712804E+00 -0.54882588924E+03  0.55071914917E+03  0.25500000000E-02 0. -1.
         -2    1    1    2  502    0  0.45625443999E+02 -0.20837712804E+00 -0.15325271894E+04  0.15332062193E+04  0.25500000000E-02 0. -1.
<mgrwt>
<rscale>  0 0.10350992E+03</rscale>
<asrwt>0</asrwt>
<pdfrwt beam="2">  1        1 0.32040334E+00 0.10350992E+03</pdfrwt>
<pdfrwt beam="1">  1       -1 0.19787011E-03 0.10350992E+03</pdfrwt>
<totfact> 0.53312916E+04</totfact>
</mgrwt>
</event>
<event>
 4    1  0.1893769E-002  0.8802409E+02  0.7818608E-02  0.1307708E+00
          1   -1    0    0    0  501  0.00000000000E+00  0.00000000000E+00  0.13160040287E+04  0.13160040288E+04  0.50400000000E-02 0. -1.
         -1   -1    0    0  501    0 -0.00000000000E+00 -0.00000000000E+00 -0.14719212319E+01  0.14719298606E+01  0.50400000000E-02 0. -1.
          2    1    1    2    0  502  0.54962933476E+01 -0.22056579088E+02  0.12213452554E+04  0.12215567669E+04  0.25500000000E-02 0. -1.
         -2    1    1    2  502    0 -0.54962933476E+01  0.22056579088E+02  0.93186852124E+02  0.95919191703E+02  0.25500000000E-02 0. -1.
<mgrwt>
<rscale>  0 0.88024087E+02</rscale>
<asrwt>0</asrwt>
<pdfrwt beam="1">  1        1 0.20246151E+00 0.88024087E+02</pdfrwt>
<pdfrwt beam="2">  1       -1 0.22645081E-03 0.88024087E+02</pdfrwt>
<totfact> 0.13299964E+05</totfact>
</mgrwt>
</event>
<event>
 4    1  0.1893769E-002  0.4977094E+02  0.7818608E-02  0.1446581E+00
         -1   -1    0    0  501    0 -0.00000000000E+00  0.00000000000E+00  0.75504371770E+00  0.75506053879E+00  0.50400000000E-02 0.  1.
          1   -1    0    0    0  501  0.00000000000E+00 -0.00000000000E+00 -0.82019054940E+03  0.82019054941E+03  0.50400000000E-02 0.  1.
          2    1    1    2    0  502  0.58996512753E+00  0.23495667714E+02 -0.54462216858E+03  0.54512906818E+03  0.25500000000E-02 0.  1.
         -2    1    1    2  502    0 -0.58996512753E+00 -0.23495667714E+02 -0.27481333710E+03  0.27581654177E+03  0.25500000000E-02 0.  1.
<mgrwt>
<rscale>  0 0.49770941E+02</rscale>
<asrwt>0</asrwt>
<pdfrwt beam="2">  1        1 0.12618245E+00 0.49770941E+02</pdfrwt>
<pdfrwt beam="1">  1       -1 0.11616252E-03 0.49770941E+02</pdfrwt>
<totfact> 0.66510191E+05</totfact>
</mgrwt>
</event>
<event>
 4    1  0.1893769E-002  0.6052084E+02  0.7818608E-02  0.1395659E+00
          1   -1    0    0    0  501  0.00000000000E+00  0.00000000000E+00  0.93195896703E+01  0.93195910331E+01  0.50400000000E-02 0. -1.
         -1   -1    0    0  501    0 -0.00000000000E+00 -0.00000000000E+00 -0.98254653296E+02  0.98254653425E+02  0.50400000000E-02 0. -1.
          2    1    1    2    0  502 -0.17119043797E+02 -0.18435506061E+02 -0.74356785230E+02  0.78497522639E+02  0.25500000000E-02 0. -1.
         -2    1    1    2  502    0  0.17119043797E+02  0.18435506061E+02 -0.14578278395E+02  0.29076721819E+02  0.25500000000E-02 0. -1.
<mgrwt>
<rscale>  0 0.60520844E+02</rscale>
<asrwt>0</asrwt>
<pdfrwt beam="1">  1        1 0.14337832E-02 0.60520844E+02</pdfrwt>
<pdfrwt beam="2">  1       -1 0.15116100E-01 0.60520844E+02</pdfrwt>
<totfact> 0.23186258E+05</totfact>
</mgrwt>
</event>
<event>
 4    1  0.1893769E-002  0.7674326E+02  0.7818608E-02  0.1338556E+00
         -1   -1    0    0  501    0 -0.00000000000E+00  0.00000000000E+00  0.10588824325E+03  0.10588824337E+03  0.50400000000E-02 0.  1.
          1   -1    0    0    0  501  0.00000000000E+00 -0.00000000000E+00 -0.13905054655E+02  0.13905055568E+02  0.50400000000E-02 0.  1.
          2    1    1    2    0  502  0.20169714191E+02 -0.18467842847E+02  0.88007378608E+02  0.92158435783E+02  0.25500000000E-02 0.  1.
         -2    1    1    2  502    0 -0.20169714191E+02  0.18467842847E+02  0.39758099854E+01  0.27634863153E+02  0.25500000000E-02 0.  1.
<mgrwt>
<rscale>  0 0.76743257E+02</rscale>
<asrwt>0</asrwt>
<pdfrwt beam="2">  1        1 0.21392392E-02 0.76743257E+02</pdfrwt>
<pdfrwt beam="1">  1       -1 0.16290499E-01 0.76743257E+02</pdfrwt>
<totfact> 0.12531253E+05</totfact>
</mgrwt>
</event>
<event>
 4    1  0.1893769E-002  0.7603252E+02  0.7818608E-02  0.1340703E+00
         -1   -1    0    0  501    0 -0.00000000000E+00  0.00000000000E+00  0.12661540066E+02  0.12661541069E+02  0.50400000000E-02 0.  1.
          1   -1    0    0    0  501  0.00000000000E+00 -0.00000000000E+00 -0.11414376806E+03  0.11414376818E+03  0.50400000000E-02 0.  1.
          2    1    1    2    0  502 -0.20373295250E+02 -0.22799496737E+02 -0.13064561027E+02  0.33250127401E+02  0.25500000000E-02 0.  1.
         -2    1    1    2  502    0  0.20373295250E+02  0.22799496737E+02 -0.88417666971E+02  0.93555181844E+02  0.25500000000E-02 0.  1.
<mgrwt>
<rscale>  0 0.76032518E+02</rscale>
<asrwt>0</asrwt>
<pdfrwt beam="2">  1        1 0.17560579E-01 0.76032518E+02</pdfrwt>
<pdfrwt beam="1">  1       -1 0.19479294E-02 0.76032518E+02</pdfrwt>
<totfact> 0.17393373E+05</totfact>
</mgrwt>
</event>
<event>
 4    1  0.1893769E-002  0.7778570E+02  0.7818608E-02  0.1335455E+00
         -1   -1    0    0  501    0 -0.00000000000E+00  0.00000000000E+00  0.14788393351E+04  0.14788393351E+04  0.50400000000E-02 0. -1.
          1   -1    0    0    0  501  0.00000000000E+00 -0.00000000000E+00 -0.10228592260E+01  0.10228716429E+01  0.50400000000E-02 0. -1.
          2    1    1    2    0  502  0.26167216085E+02  0.22839209948E+02  0.40594545270E+03  0.40742859900E+03  0.25500000000E-02 0.  1.
         -2    1    1    2  502    0 -0.26167216085E+02 -0.22839209948E+02  0.10718710232E+04  0.10724336078E+04  0.25500000000E-02 0.  1.
<mgrwt>
<rscale>  0 0.77785697E+02</rscale>
<asrwt>0</asrwt>
<pdfrwt beam="2">  1        1 0.15736424E-03 0.77785697E+02</pdfrwt>
<pdfrwt beam="1">  1       -1 0.22751327E+00 0.77785697E+02</pdfrwt>
<totfact> 0.21493565E+04</totfact>
</mgrwt>
</event>
<event>
 4    1  0.1893769E-002  0.4847720E+02  0.7818608E-02  0.1453732E+00
         -1   -1    0    0  501    0 -0.00000000000E+00  0.00000000000E+00  0.45599997319E+00  0.45602782497E+00  0.50400000000E-02 0.  1.
          1   -1    0    0    0  501  0.00000000000E+00 -0.00000000000E+00 -0.12883594615E+04  0.12883594615E+04  0.50400000000E-02 0.  1.
          2    1    1    2    0  502 -0.18205200288E+02  0.15642769032E+02 -0.73365455198E+03  0.73404708785E+03  0.25500000000E-02 0.  1.
         -2    1    1    2  502    0  0.18205200288E+02 -0.15642769032E+02 -0.55424890956E+03  0.55476840149E+03  0.25500000000E-02 0.  1.
<mgrwt>
<rscale>  0 0.48477204E+02</rscale>
<asrwt>0</asrwt>
<pdfrwt beam="2">  1        1 0.19820624E+00 0.48477204E+02</pdfrwt>
<pdfrwt beam="1">  1       -1 0.70157017E-04 0.48477204E+02</pdfrwt>
<totfact> 0.61950377E+05</totfact>
</mgrwt>
</event>
<event>
 4    1  0.1893769E-002  0.5273522E+02  0.7818608E-02  0.1431123E+00
         -1   -1    0    0  501    0 -0.00000000000E+00  0.00000000000E+00  0.14991724130E+01  0.14991808849E+01  0.50400000000E-02 0.  1.
          1   -1    0    0    0  501  0.00000000000E+00 -0.00000000000E+00 -0.46375516671E+03  0.46375516674E+03  0.50400000000E-02 0.  1.
          2    1    1    2    0  502  0.17818467557E+02  0.19330928569E+02 -0.21333299089E+03  0.21494684830E+03  0.25500000000E-02 0.  1.
         -2    1    1    2  502    0 -0.17818467557E+02 -0.19330928569E+02 -0.24892300341E+03  0.25030749932E+03  0.25500000000E-02 0.  1.
<mgrwt>
<rscale>  0 0.52735223E+02</rscale>
<asrwt>0</asrwt>
<pdfrwt beam="2">  1        1 0.71346835E-01 0.52735223E+02</pdfrwt>
<pdfrwt beam="1">  1       -1 0.23064293E-03 0.52735223E+02</pdfrwt>
<totfact> 0.56561646E+05</totfact>
</mgrwt>
</event>
<event>
 4    1  0.1893769E-002  0.6995858E+02  0.7818608E-02  0.1360234E+00
         -1   -1    0    0  501    0 -0.00000000000E+00  0.00000000000E+00  0.20119059943E+03  0.20119059949E+03  0.50400000000E-02 0.  1.
          1   -1    0    0    0  501  0.00000000000E+00 -0.00000000000E+00 -0.60815492231E+01  0.60815513115E+01  0.50400000000E-02 0.  1.
          2    1    1    2    0  502 -0.28860783976E+02  0.17536796558E+00  0.15610794482E+03  0.15875347570E+03  0.25500000000E-02 0. -1.
         -2    1    1    2  502    0  0.28860783976E+02 -0.17536796558E+00  0.39001105386E+02  0.48518675100E+02  0.25500000000E-02 0. -1.
<mgrwt>
<rscale>  0 0.69958581E+02</rscale>
<asrwt>0</asrwt>
<pdfrwt beam="2">  1        1 0.93562306E-03 0.69958581E+02</pdfrwt>
<pdfrwt beam="1">  1       -1 0.30952402E-01 0.69958581E+02</pdfrwt>
<totfact> 0.13733582E+05</totfact>
</mgrwt>
</event>
<event>
 4    1  0.1893769E-002  0.1493091E+03  0.7818608E-02  0.1201325E+00
          1   -1    0    0    0  501  0.00000000000E+00  0.00000000000E+00  0.10759436229E+02  0.10759437409E+02  0.50400000000E-02 0.  1.
         -1   -1    0    0  501    0 -0.00000000000E+00 -0.00000000000E+00 -0.51799216847E+03  0.51799216849E+03  0.50400000000E-02 0.  1.
          2    1    1    2    0  502  0.20712317552E+02 -0.54874870109E+02 -0.90060504299E+02  0.10747625742E+03  0.25500000000E-02 0.  1.
         -2    1    1    2  502    0 -0.20712317552E+02  0.54874870109E+02 -0.41717222794E+03  0.42127534848E+03  0.25500000000E-02 0.  1.
<mgrwt>
<rscale>  0 0.14930913E+03</rscale>
<asrwt>0</asrwt>
<pdfrwt beam="1">  1        1 0.16552984E-02 0.14930913E+03</pdfrwt>
<pdfrwt beam="2">  1       -1 0.79691084E-01 0.14930913E+03</pdfrwt>
<totfact> 0.12336191E+04</totfact>
</mgrwt>
</event>
<event>
 4    1  0.1893769E-002  0.8599032E+02  0.7818608E-02  0.1312863E+00
         -1   -1    0    0  501    0 -0.00000000000E+00  0.00000000000E+00  0.12803561609E+01  0.12803660806E+01  0.50400000000E-02 0. -1.
          1   -1    0    0    0  501  0.00000000000E+00 -0.00000000000E+00 -0.14437986077E+04  0.14437986077E+04  0.50400000000E-02 0. -1.
          2    1    1    2    0  502  0.34648314967E+02  0.25456940514E+02 -0.72375508879E+03  0.72503102700E+03  0.25500000000E-02 0.  1.
         -2    1    1    2  502    0 -0.34648314967E+02 -0.25456940514E+02 -0.71876316277E+03  0.72004794681E+03  0.25500000000E-02 0.  1.
<mgrwt>
<rscale>  0 0.85990316E+02</rscale>
<asrwt>0</asrwt>
<pdfrwt beam="2">  1        1 0.22212156E+00 0.85990316E+02</pdfrwt>
<pdfrwt beam="1">  1       -1 0.19697979E-03 0.85990316E+02</pdfrwt>
<totfact> 0.13291461E+05</totfact>
</mgrwt>
</event>
<event>
 4    1  0.1893769E-002  0.5158644E+02  0.7818608E-02  0.1436968E+00
         -1   -1    0    0  501    0 -0.00000000000E+00  0.00000000000E+00  0.20964376334E+01  0.20964436917E+01  0.50400000000E-02 0. -1.
          1   -1    0    0    0  501  0.00000000000E+00 -0.00000000000E+00 -0.31734268614E+03  0.31734268618E+03  0.50400000000E-02 0. -1.
          2    1    1    2    0  502  0.97383405823E+01  0.22881506579E+02 -0.11521982701E+03  0.11787284320E+03  0.25500000000E-02 0.  1.
         -2    1    1    2  502    0 -0.97383405823E+01 -0.22881506579E+02 -0.20002642150E+03  0.20156628667E+03  0.25500000000E-02 0.  1.
<mgrwt>
<rscale>  0 0.51586437E+02</rscale>
<asrwt>0</asrwt>
<pdfrwt beam="2">  1        1 0.48821914E-01 0.51586437E+02</pdfrwt>
<pdfrwt beam="1">  1       -1 0.32252959E-03 0.51586437E+02</pdfrwt>
<totfact> 0.56377008E+05</totfact>
</mgrwt>
</event>
<event>
 4    1  0.1893769E-002  0.5973750E+02  0.7818608E-02  0.1398937E+00
          1   -1    0    0    0  501  0.00000000000E+00  0.00000000000E+00  0.13942482160E+04  0.13942482160E+04  0.50400000000E-02 0. -1.
         -1   -1    0    0  501    0 -0.00000000000E+00 -0.00000000000E+00 -0.63986327413E+00  0.63988312306E+00  0.50400000000E-02 0. -1.
          2    1    1    2    0  502  0.27791672142E+02  0.85160961022E+01  0.53631249035E+03  0.53709960738E+03  0.25500000000E-02 0. -1.
         -2    1    1    2  502    0 -0.27791672142E+02 -0.85160961022E+01  0.85729586235E+03  0.85778849173E+03  0.25500000000E-02 0. -1.
<mgrwt>
<rscale>  0 0.59737495E+02</rscale>
<asrwt>0</asrwt>
<pdfrwt beam="1">  1        1 0.21449594E+00 0.59737495E+02</pdfrwt>
<pdfrwt beam="2">  1       -1 0.98443767E-04 0.59737495E+02</pdfrwt>
<totfact> 0.34943256E+05</totfact>
</mgrwt>
</event>
<event>
 4    1  0.1893769E-002  0.7103471E+02  0.7818608E-02  0.1356609E+00
          1   -1    0    0    0  501  0.00000000000E+00  0.00000000000E+00  0.72551422682E+03  0.72551422684E+03  0.50400000000E-02 0. -1.
         -1   -1    0    0  501    0 -0.00000000000E+00 -0.00000000000E+00 -0.17387390773E+01  0.17387463819E+01  0.50400000000E-02 0. -1.
          2    1    1    2    0  502  0.20222986475E+02  0.16396702582E+02  0.60922835059E+03  0.60978439157E+03  0.25500000000E-02 0.  1.
         -2    1    1    2  502    0 -0.20222986475E+02 -0.16396702582E+02  0.11454713715E+03  0.11746858165E+03  0.25500000000E-02 0.  1.
<mgrwt>
<rscale>  0 0.71034713E+02</rscale>
<asrwt>0</asrwt>
<pdfrwt beam="1">  1        1 0.11161740E+00 0.71034713E+02</pdfrwt>
<pdfrwt beam="2">  1       -1 0.26749930E-03 0.71034713E+02</pdfrwt>
<totfact> 0.27271473E+05</totfact>
</mgrwt>
</event>
<event>
 4    1  0.1893769E-002  0.4132830E+02  0.7818608E-02  0.1498658E+00
          1   -1    0    0    0  501  0.00000000000E+00  0.00000000000E+00  0.57771290957E+03  0.57771290959E+03  0.50400000000E-02 0.  1.
         -1   -1    0    0  501    0 -0.00000000000E+00 -0.00000000000E+00 -0.73912506993E+00  0.73914225330E+00  0.50400000000E-02 0.  1.
          2    1    1    2    0  502 -0.14373414629E+02  0.14750628130E+02  0.31203677252E+03  0.31271572312E+03  0.25500000000E-02 0.  1.
         -2    1    1    2  502    0  0.14373414629E+02 -0.14750628130E+02  0.26493701199E+03  0.26573632873E+03  0.25500000000E-02 0.  1.
<mgrwt>
<rscale>  0 0.41328299E+02</rscale>
<asrwt>0</asrwt>
<pdfrwt beam="1">  1        1 0.88878828E-01 0.41328299E+02</pdfrwt>
<pdfrwt beam="2">  1       -1 0.11371298E-03 0.41328299E+02</pdfrwt>
<totfact> 0.10529328E+06</totfact>
</mgrwt>
</event>
<event>
 4    1  0.1893769E-002  0.5081786E+02  0.7818608E-02  0.1440980E+00
          1   -1    0    0    0  501  0.00000000000E+00  0.00000000000E+00  0.93890410881E+03  0.93890410883E+03  0.50400000000E-02 0.  1.
         -1   -1    0    0  501    0 -0.00000000000E+00 -0.00000000000E+00 -0.68761553266E+00  0.68763400320E+00  0.50400000000E-02 0.  1.
          2    1    1    2    0  502  0.82887805350E+01 -0.18740316062E+02  0.74688672762E+03  0.74716777716E+03  0.25500000000E-02 0. -1.
         -2    1    1    2  502    0 -0.82887805350E+01  0.18740316062E+02  0.19132976566E+03  0.19242396567E+03  0.25500000000E-02 0. -1.
<mgrwt>
<rscale>  0 0.50817860E+02</rscale>
<asrwt>0</asrwt>
<pdfrwt beam="1">  1        1 0.14444678E+00 0.50817860E+02</pdfrwt>
<pdfrwt beam="2">  1       -1 0.10578843E-03 0.50817860E+02</pdfrwt>
<totfact> 0.61861922E+05</totfact>
</mgrwt>
</event>
<event>
 4    1  0.1893769E-002  0.4763076E+02  0.7818608E-02  0.1458556E+00
         -1   -1    0    0  501    0 -0.00000000000E+00  0.00000000000E+00  0.15104694387E+02  0.15104695228E+02  0.50400000000E-02 0.  1.
          1   -1    0    0    0  501  0.00000000000E+00 -0.00000000000E+00 -0.37549411935E+02  0.37549412273E+02  0.50400000000E-02 0.  1.
          2    1    1    2    0  502  0.19539058422E+02  0.62586644203E+01  0.21453844224E+01  0.20628823650E+02  0.25500000000E-02 0. -1.
         -2    1    1    2  502    0 -0.19539058422E+02 -0.62586644203E+01 -0.24590101970E+02  0.32025283851E+02  0.25500000000E-02 0. -1.
<mgrwt>
<rscale>  0 0.47630764E+02</rscale>
<asrwt>0</asrwt>
<pdfrwt beam="2">  1        1 0.57768327E-02 0.47630764E+02</pdfrwt>
<pdfrwt beam="1">  1       -1 0.23237992E-02 0.47630764E+02</pdfrwt>
<totfact> 0.51376648E+05</totfact>
</mgrwt>
</event>
<event>
 4    1  0.1893769E-002  0.1359948E+03  0.7818608E-02  0.1218822E+00
          1   -1    0    0    0  501  0.00000000000E+00  0.00000000000E+00  0.14903095279E+04  0.14903095279E+04  0.50400000000E-02 0.  1.
         -1   -1    0    0  501    0 -0.00000000000E+00 -0.00000000000E+00 -0.31024730948E+01  0.31024771886E+01  0.50400000000E-02 0.  1.
          2    1    1    2    0  502  0.13143263699E+02  0.24530440601E+02  0.62300606683E+02  0.68233814903E+02  0.25500000000E-02 0. -1.
         -2    1    1    2  502    0 -0.13143263699E+02 -0.24530440601E+02  0.14249064482E+04  0.14251781902E+04  0.25500000000E-02 0. -1.
<mgrwt>
<rscale>  0 0.13599483E+03</rscale>
<asrwt>0</asrwt>
<pdfrwt beam="1">  1        1 0.22927838E+00 0.13599483E+03</pdfrwt>
<pdfrwt beam="2">  1       -1 0.47730390E-03 0.13599483E+03</pdfrwt>
<totfact> 0.37796499E+04</totfact>
</mgrwt>
</event>
<event>
 4    1  0.1893769E-002  0.6155339E+02  0.7818608E-02  0.1391426E+00
          1   -1    0    0    0  501  0.00000000000E+00  0.00000000000E+00  0.31662413637E+02  0.31662414038E+02  0.50400000000E-02 0. -1.
         -1   -1    0    0  501    0 -0.00000000000E+00 -0.00000000000E+00 -0.29915757132E+02  0.29915757557E+02  0.50400000000E-02 0. -1.
          2    1    1    2    0  502  0.26615804289E+02 -0.10509872385E+01  0.16297039939E+02  0.31226577292E+02  0.25500000000E-02 0.  1.
         -2    1    1    2  502    0 -0.26615804289E+02  0.10509872385E+01 -0.14550383435E+02  0.30351594302E+02  0.25500000000E-02 0.  1.
<mgrwt>
<rscale>  0 0.61553395E+02</rscale>
<asrwt>0</asrwt>
<pdfrwt beam="1">  1        1 0.48711406E-02 0.61553395E+02</pdfrwt>
<pdfrwt beam="2">  1       -1 0.46024242E-02 0.61553395E+02</pdfrwt>
<totfact> 0.25881202E+05</totfact>
</mgrwt>
</event>
<event>
 4    1  0.1893769E-002  0.7393804E+02  0.7818608E-02  0.1347191E+00
          1   -1    0    0    0  501  0.00000000000E+00  0.00000000000E+00  0.28492510267E+02  0.28492510713E+02  0.50400000000E-02 0. -1.
         -1   -1    0    0  501    0 -0.00000000000E+00 -0.00000000000E+00 -0.47967282079E+02  0.47967282343E+02  0.50400000000E-02 0. -1.
          2    1    1    2    0  502  0.81311167141E+01 -0.20328078949E+02  0.21067225046E+02  0.30383775776E+02  0.25500000000E-02 0.  1.
         -2    1    1    2  502    0 -0.81311167141E+01  0.20328078949E+02 -0.40541996857E+02  0.46076017280E+02  0.25500000000E-02 0.  1.
<mgrwt>
<rscale>  0 0.73938036E+02</rscale>
<asrwt>0</asrwt>
<pdfrwt beam="1">  1        1 0.43834632E-02 0.73938036E+02</pdfrwt>
<pdfrwt beam="2">  1       -1 0.73795819E-02 0.73938036E+02</pdfrwt>
<totfact> 0.15530214E+05</totfact>
</mgrwt>
</event>
<event>
 4    1  0.1893769E-002  0.5791305E+02  0.7818608E-02  0.1406804E+00
          1   -1    0    0    0  501  0.00000000000E+00  0.00000000000E+00  0.67530211302E+01  0.67530230110E+01  0.50400000000E-02 0.  1.
         -1   -1    0    0  501    0 -0.00000000000E+00 -0.00000000000E+00 -0.12416371497E+03  0.12416371508E+03  0.50400000000E-02 0.  1.
          2    1    1    2    0  502  0.12848520076E+02 -0.25092403763E+02 -0.73660564129E+02  0.78870729102E+02  0.25500000000E-02 0. -1.
         -2    1    1    2  502    0 -0.12848520076E+02  0.25092403763E+02 -0.43750129715E+02  0.52046008985E+02  0.25500000000E-02 0. -1.
<mgrwt>
<rscale>  0 0.57913049E+02</rscale>
<asrwt>0</asrwt>
<pdfrwt beam="1">  1        1 0.10389266E-02 0.57913049E+02</pdfrwt>
<pdfrwt beam="2">  1       -1 0.19102108E-01 0.57913049E+02</pdfrwt>
<totfact> 0.24825308E+05</totfact>
</mgrwt>
</event>
<event>
 4    1  0.1893769E-002  0.4145783E+02  0.7818608E-02  0.1497749E+00
          1   -1    0    0    0  501  0.00000000000E+00  0.00000000000E+00  0.16068174737E+02  0.16068175528E+02  0.50400000000E-02 0. -1.
         -1   -1    0    0  501    0 -0.00000000000E+00 -0.00000000000E+00 -0.26741554416E+02  0.26741554890E+02  0.50400000000E-02 0. -1.
          2    1    1    2    0  502 -0.19867269502E+02  0.58274335810E+01 -0.63798856036E+01  0.21664956183E+02  0.25500000000E-02 0. -1.
         -2    1    1    2  502    0  0.19867269502E+02 -0.58274335810E+01 -0.42934940746E+01  0.21144774235E+02  0.25500000000E-02 0. -1.
<mgrwt>
<rscale>  0 0.41457834E+02</rscale>
<asrwt>0</asrwt>
<pdfrwt beam="1">  1        1 0.24720270E-02 0.41457834E+02</pdfrwt>
<pdfrwt beam="2">  1       -1 0.41140854E-02 0.41457834E+02</pdfrwt>
<totfact> 0.68318830E+05</totfact>
</mgrwt>
</event>
<event>
 4    1  0.1893769E-002  0.9761564E+02  0.7818608E-02  0.1285391E+00
          1   -1    0    0    0  501  0.00000000000E+00  0.00000000000E+00  0.32280735743E+02  0.32280736136E+02  0.50400000000E-02 0.  1.
         -1   -1    0    0  501    0 -0.00000000000E+00 -0.00000000000E+00 -0.73796429633E+02  0.73796429805E+02  0.50400000000E-02 0.  1.
          2    1    1    2    0  502  0.23840437239E+02 -0.31628165412E+02  0.10236334582E+02  0.40908310247E+02  0.25500000000E-02 0.  1.
         -2    1    1    2  502    0 -0.23840437239E+02  0.31628165412E+02 -0.51752028473E+02  0.65168855695E+02  0.25500000000E-02 0.  1.
<mgrwt>
<rscale>  0 0.97615636E+02</rscale>
<asrwt>0</asrwt>
<pdfrwt beam="1">  1        1 0.49662671E-02 0.97615636E+02</pdfrwt>
<pdfrwt beam="2">  1       -1 0.11353297E-01 0.97615636E+02</pdfrwt>
<totfact> 0.72060636E+04</totfact>
</mgrwt>
</event>
<event>
 4    1  0.1893769E-002  0.5147900E+02  0.7818608E-02  0.1437524E+00
         -1   -1    0    0  501    0 -0.00000000000E+00  0.00000000000E+00  0.27634473189E+00  0.27639068806E+00  0.50400000000E-02 0. -1.
          1   -1    0    0    0  501  0.00000000000E+00 -0.00000000000E+00 -0.23972480515E+04  0.23972480515E+04  0.50400000000E-02 0. -1.
          2    1    1    2    0  502  0.13331769314E+02  0.21541529288E+02 -0.98634454287E+03  0.98666981854E+03  0.25500000000E-02 0.  1.
         -2    1    1    2  502    0 -0.13331769314E+02 -0.21541529288E+02 -0.14106271639E+04  0.14108546237E+04  0.25500000000E-02 0.  1.
<mgrwt>
<rscale>  0 0.51479004E+02</rscale>
<asrwt>0</asrwt>
<pdfrwt beam="2">  1        1 0.36879075E+00 0.51479004E+02</pdfrwt>
<pdfrwt beam="1">  1       -1 0.42520029E-04 0.51479004E+02</pdfrwt>
<totfact> 0.25360792E+05</totfact>
</mgrwt>
</event>
<event>
 4    1  0.1893769E-002  0.6298938E+02  0.7818608E-02  0.1385698E+00
         -1   -1    0    0  501    0 -0.00000000000E+00  0.00000000000E+00  0.10952287837E+03  0.10952287849E+03  0.50400000000E-02 0.  1.
          1   -1    0    0    0  501  0.00000000000E+00 -0.00000000000E+00 -0.90566951314E+01  0.90566965338E+01  0.50400000000E-02 0.  1.
          2    1    1    2    0  502  0.30939313933E+02 -0.43988642211E+01  0.57602492570E+02  0.65533489987E+02  0.25500000000E-02 0. -1.
         -2    1    1    2  502    0 -0.30939313933E+02  0.43988642211E+01  0.42863690668E+02  0.53046085033E+02  0.25500000000E-02 0. -1.
<mgrwt>
<rscale>  0 0.62989377E+02</rscale>
<asrwt>0</asrwt>
<pdfrwt beam="2">  1        1 0.13933378E-02 0.62989377E+02</pdfrwt>
<pdfrwt beam="1">  1       -1 0.16849674E-01 0.62989377E+02</pdfrwt>
<totfact> 0.20573973E+05</totfact>
</mgrwt>
</event>
<event>
 4    1  0.1893769E-002  0.5413074E+02  0.7818608E-02  0.1424255E+00
          1   -1    0    0    0  501  0.00000000000E+00  0.00000000000E+00  0.14724692766E+02  0.14724693628E+02  0.50400000000E-02 0.  1.
         -1   -1    0    0  501    0 -0.00000000000E+00 -0.00000000000E+00 -0.49748689526E+02  0.49748689781E+02  0.50400000000E-02 0.  1.
          2    1    1    2    0  502  0.27019602620E+02 -0.13944923849E+01 -0.16644345225E+02  0.31765354857E+02  0.25500000000E-02 0. -1.
         -2    1    1    2  502    0 -0.27019602620E+02  0.13944923849E+01 -0.18379651535E+02  0.32708028553E+02  0.25500000000E-02 0. -1.
<mgrwt>
<rscale>  0 0.54130738E+02</rscale>
<asrwt>0</asrwt>
<pdfrwt beam="1">  1        1 0.22653375E-02 0.54130738E+02</pdfrwt>
<pdfrwt beam="2">  1       -1 0.76536445E-02 0.54130738E+02</pdfrwt>
<totfact> 0.33625987E+05</totfact>
</mgrwt>
</event>
<event>
 4    1  0.1893769E-002  0.5352450E+02  0.7818608E-02  0.1427208E+00
          1   -1    0    0    0  501  0.00000000000E+00  0.00000000000E+00  0.27344442330E+01  0.27344488778E+01  0.50400000000E-02 0.  1.
         -1   -1    0    0  501    0 -0.00000000000E+00 -0.00000000000E+00 -0.26192432520E+03  0.26192432525E+03  0.50400000000E-02 0.  1.
          2    1    1    2    0  502 -0.49516403812E+00  0.20517431618E+02 -0.21452285784E+03  0.21550235899E+03  0.25500000000E-02 0.  1.
         -2    1    1    2  502    0  0.49516403812E+00 -0.20517431618E+02 -0.44667023132E+02  0.49156415142E+02  0.25500000000E-02 0.  1.
<mgrwt>
<rscale>  0 0.53524502E+02</rscale>
<asrwt>0</asrwt>
<pdfrwt beam="1">  1        1 0.42068430E-03 0.53524502E+02</pdfrwt>
<pdfrwt beam="2">  1       -1 0.40296031E-01 0.53524502E+02</pdfrwt>
<totfact> 0.24888844E+05</totfact>
</mgrwt>
</event>
<event>
 4    1  0.1893769E-002  0.4468754E+02  0.7818608E-02  0.1476302E+00
         -1   -1    0    0  501    0 -0.00000000000E+00  0.00000000000E+00  0.14306801171E+01  0.14306889945E+01  0.50400000000E-02 0.  1.
          1   -1    0    0    0  501  0.00000000000E+00 -0.00000000000E+00 -0.34895458374E+03  0.34895458378E+03  0.50400000000E-02 0.  1.
          2    1    1    2    0  502  0.18799048587E+02  0.12066415999E+02 -0.16991024329E+03  0.17137238226E+03  0.25500000000E-02 0.  1.
         -2    1    1    2  502    0 -0.18799048587E+02 -0.12066415999E+02 -0.17761366034E+03  0.17901289051E+03  0.25500000000E-02 0.  1.
<mgrwt>
<rscale>  0 0.44687535E+02</rscale>
<asrwt>0</asrwt>
<pdfrwt beam="2">  1        1 0.53685254E-01 0.44687535E+02</pdfrwt>
<pdfrwt beam="1">  1       -1 0.22010560E-03 0.44687535E+02</pdfrwt>
<totfact> 0.81761139E+05</totfact>
</mgrwt>
</event>
<event>
 4    1  0.1893769E-002  0.4445549E+02  0.7818608E-02  0.1477770E+00
          1   -1    0    0    0  501  0.00000000000E+00  0.00000000000E+00  0.14699948124E+03  0.14699948132E+03  0.50400000000E-02 0.  1.
         -1   -1    0    0  501    0 -0.00000000000E+00 -0.00000000000E+00 -0.33610479269E+01  0.33610517057E+01  0.50400000000E-02 0.  1.
          2    1    1    2    0  502 -0.46615670825E+01  0.20060984827E+02  0.43541470817E+02  0.48166720953E+02  0.25500000000E-02 0. -1.
         -2    1    1    2  502    0  0.46615670825E+01 -0.20060984827E+02  0.10009696249E+03  0.10219381208E+03  0.25500000000E-02 0. -1.
<mgrwt>
<rscale>  0 0.44455488E+02</rscale>
<asrwt>0</asrwt>
<pdfrwt beam="1">  1        1 0.22615302E-01 0.44455488E+02</pdfrwt>
<pdfrwt beam="2">  1       -1 0.51708466E-03 0.44455488E+02</pdfrwt>
<totfact> 0.71605740E+05</totfact>
</mgrwt>
</event>
<event>
 4    1  0.1893769E-002  0.4731970E+02  0.7818608E-02  0.1460359E+00
         -1   -1    0    0  501    0 -0.00000000000E+00  0.00000000000E+00  0.67333752231E+02  0.67333752420E+02  0.50400000000E-02 0. -1.
          1   -1    0    0    0  501  0.00000000000E+00 -0.00000000000E+00 -0.83136390674E+01  0.83136405951E+01  0.50400000000E-02 0. -1.
          2    1    1    2    0  502  0.23519650527E+02 -0.25465604652E+01  0.28934454739E+02  0.37374611819E+02  0.25500000000E-02 0.  1.
         -2    1    1    2  502    0 -0.23519650527E+02  0.25465604652E+01  0.30085658425E+02  0.38272781195E+02  0.25500000000E-02 0.  1.
<mgrwt>
<rscale>  0 0.47319703E+02</rscale>
<asrwt>0</asrwt>
<pdfrwt beam="2">  1        1 0.12790216E-02 0.47319703E+02</pdfrwt>
<pdfrwt beam="1">  1       -1 0.10359039E-01 0.47319703E+02</pdfrwt>
<totfact> 0.45162917E+05</totfact>
</mgrwt>
</event>
<event>
 4    1  0.1893769E-002  0.8264379E+02  0.7818608E-02  0.1321712E+00
         -1   -1    0    0  501    0 -0.00000000000E+00  0.00000000000E+00  0.21087568976E+03  0.21087568982E+03  0.50400000000E-02 0. -1.
          1   -1    0    0    0  501  0.00000000000E+00 -0.00000000000E+00 -0.80971828244E+01  0.80971843930E+01  0.50400000000E-02 0. -1.
          2    1    1    2    0  502  0.33301250225E+02 -0.24451996525E+02  0.10348525909E+03  0.11142743045E+03  0.25500000000E-02 0. -1.
         -2    1    1    2  502    0 -0.33301250225E+02  0.24451996525E+02  0.99293247846E+02  0.10754544377E+03  0.25500000000E-02 0. -1.
<mgrwt>
<rscale>  0 0.82643794E+02</rscale>
<asrwt>0</asrwt>
<pdfrwt beam="2">  1        1 0.12457206E-02 0.82643794E+02</pdfrwt>
<pdfrwt beam="1">  1       -1 0.32442413E-01 0.82643794E+02</pdfrwt>
<totfact> 0.88237468E+04</totfact>
</mgrwt>
</event>
<event>
 4    1  0.1893769E-002  0.5237091E+02  0.7818608E-02  0.1432957E+00
          1   -1    0    0    0  501  0.00000000000E+00  0.00000000000E+00  0.84071244663E+03  0.84071244665E+03  0.50400000000E-02 0. -1.
         -1   -1    0    0  501    0 -0.00000000000E+00 -0.00000000000E+00 -0.81558383944E+00  0.81559941194E+00  0.50400000000E-02 0. -1.
          2    1    1    2    0  502 -0.22648512237E+02 -0.32656005409E+00  0.20883329824E+03  0.21005810674E+03  0.25500000000E-02 0.  1.
         -2    1    1    2  502    0  0.22648512237E+02  0.32656005409E+00  0.63106356455E+03  0.63146993932E+03  0.25500000000E-02 0.  1.
<mgrwt>
<rscale>  0 0.52370910E+02</rscale>
<asrwt>0</asrwt>
<pdfrwt beam="1">  1        1 0.12934053E+00 0.52370910E+02</pdfrwt>
<pdfrwt beam="2">  1       -1 0.12547548E-03 0.52370910E+02</pdfrwt>
<totfact> 0.58436966E+05</totfact>
</mgrwt>
</event>
<event>
 4    1  0.1893769E-002  0.6225041E+02  0.7818608E-02  0.1388623E+00
          1   -1    0    0    0  501  0.00000000000E+00  0.00000000000E+00  0.45850595333E+02  0.45850595610E+02  0.50400000000E-02 0. -1.
         -1   -1    0    0  501    0 -0.00000000000E+00 -0.00000000000E+00 -0.21129022100E+02  0.21129022701E+02  0.50400000000E-02 0. -1.
          2    1    1    2    0  502 -0.29328354010E+02  0.95494307472E+01  0.16853436666E+02  0.35148005783E+02  0.25500000000E-02 0.  1.
         -2    1    1    2  502    0  0.29328354010E+02 -0.95494307472E+01  0.78681365668E+01  0.31831612527E+02  0.25500000000E-02 0.  1.
<mgrwt>
<rscale>  0 0.62250406E+02</rscale>
<asrwt>0</asrwt>
<pdfrwt beam="1">  1        1 0.70539378E-02 0.62250406E+02</pdfrwt>
<pdfrwt beam="2">  1       -1 0.32506188E-02 0.62250406E+02</pdfrwt>
<totfact> 0.26151776E+05</totfact>
</mgrwt>
</event>
<event>
 4    1  0.1893769E-002  0.4369617E+02  0.7818608E-02  0.1482649E+00
          1   -1    0    0    0  501  0.00000000000E+00  0.00000000000E+00  0.20522283940E+01  0.20522345827E+01  0.50400000000E-02 0.  1.
         -1   -1    0    0  501    0 -0.00000000000E+00 -0.00000000000E+00 -0.23259496814E+03  0.23259496819E+03  0.50400000000E-02 0.  1.
          2    1    1    2    0  502  0.10396472263E+02  0.18016119589E+02 -0.79380215230E+02  0.82060256989E+02  0.25500000000E-02 0.  1.
         -2    1    1    2  502    0 -0.10396472263E+02 -0.18016119589E+02 -0.15116252451E+03  0.15258694578E+03  0.25500000000E-02 0.  1.
<mgrwt>
<rscale>  0 0.43696166E+02</rscale>
<asrwt>0</asrwt>
<pdfrwt beam="1">  1        1 0.31572811E-03 0.43696166E+02</pdfrwt>
<pdfrwt beam="2">  1       -1 0.35783821E-01 0.43696166E+02</pdfrwt>
<totfact> 0.42714618E+05</totfact>
</mgrwt>
</event>
<event>
 4    1  0.1893769E-002  0.4064222E+02  0.7818608E-02  0.1503538E+00
          1   -1    0    0    0  501  0.00000000000E+00  0.00000000000E+00  0.52679590179E+03  0.52679590182E+03  0.50400000000E-02 0. -1.
         -1   -1    0    0  501    0 -0.00000000000E+00 -0.00000000000E+00 -0.78387692365E+00  0.78389312603E+00  0.50400000000E-02 0. -1.
          2    1    1    2    0  502  0.10498534591E+02 -0.17148757668E+02  0.30118077244E+03  0.30185121635E+03  0.25500000000E-02 0. -1.
         -2    1    1    2  502    0 -0.10498534591E+02  0.17148757668E+02  0.22483125243E+03  0.22572857859E+03  0.25500000000E-02 0. -1.
<mgrwt>
<rscale>  0 0.40642216E+02</rscale>
<asrwt>0</asrwt>
<pdfrwt beam="1">  1        1 0.81045356E-01 0.40642216E+02</pdfrwt>
<pdfrwt beam="2">  1       -1 0.12059795E-03 0.40642216E+02</pdfrwt>
<totfact> 0.10886056E+06</totfact>
</mgrwt>
</event>
<event>
 4    1  0.1893769E-002  0.7260621E+02  0.7818608E-02  0.1351448E+00
          1   -1    0    0    0  501  0.00000000000E+00  0.00000000000E+00  0.13194650028E+04  0.13194650028E+04  0.50400000000E-02 0.  1.
         -1   -1    0    0  501    0 -0.00000000000E+00 -0.00000000000E+00 -0.99881922433E+00  0.99883194006E+00  0.50400000000E-02 0.  1.
          2    1    1    2    0  502 -0.19593596319E+02  0.30041682350E+02  0.55715475098E+03  0.55830800482E+03  0.25500000000E-02 0. -1.
         -2    1    1    2  502    0  0.19593596319E+02 -0.30041682350E+02  0.76131143256E+03  0.76215582990E+03  0.25500000000E-02 0. -1.
<mgrwt>
<rscale>  0 0.72606209E+02</rscale>
<asrwt>0</asrwt>
<pdfrwt beam="1">  1        1 0.20299463E+00 0.72606209E+02</pdfrwt>
<pdfrwt beam="2">  1       -1 0.15366547E-03 0.72606209E+02</pdfrwt>
<totfact> 0.21959180E+05</totfact>
</mgrwt>
</event>
<event>
 4    1  0.1893769E-002  0.4531051E+02  0.7818608E-02  0.1472412E+00
          1   -1    0    0    0  501  0.00000000000E+00  0.00000000000E+00  0.47307806601E+03  0.47307806603E+03  0.50400000000E-02 0.  1.
         -1   -1    0    0  501    0 -0.00000000000E+00 -0.00000000000E+00 -0.10849325984E+01  0.10849443048E+01  0.50400000000E-02 0.  1.
          2    1    1    2    0  502  0.18573299632E+02  0.86860215382E+01  0.33683142437E+03  0.33745491977E+03  0.25500000000E-02 0. -1.
         -2    1    1    2  502    0 -0.18573299632E+02 -0.86860215382E+01  0.13516170904E+03  0.13670809057E+03  0.25500000000E-02 0. -1.
<mgrwt>
<rscale>  0 0.45310511E+02</rscale>
<asrwt>0</asrwt>
<pdfrwt beam="1">  1        1 0.72781439E-01 0.45310511E+02</pdfrwt>
<pdfrwt beam="2">  1       -1 0.16691316E-03 0.45310511E+02</pdfrwt>
<totfact> 0.82576380E+05</totfact>
</mgrwt>
</event>
<event>
 4    1  0.1893769E-002  0.5410067E+02  0.7818608E-02  0.1424400E+00
         -1   -1    0    0  501    0 -0.00000000000E+00  0.00000000000E+00  0.70229601879E+01  0.70229619964E+01  0.50400000000E-02 0.  1.
          1   -1    0    0    0  501  0.00000000000E+00 -0.00000000000E+00 -0.10418973942E+03  0.10418973955E+03  0.50400000000E-02 0.  1.
          2    1    1    2    0  502  0.92119236957E+01  0.22552077461E+02 -0.72755108294E+02  0.76725233954E+02  0.25500000000E-02 0. -1.
         -2    1    1    2  502    0 -0.92119236957E+01 -0.22552077461E+02 -0.24411670943E+02  0.34487467589E+02  0.25500000000E-02 0. -1.
<mgrwt>
<rscale>  0 0.54100665E+02</rscale>
<asrwt>0</asrwt>
<pdfrwt beam="2">  1        1 0.16029190E-01 0.54100665E+02</pdfrwt>
<pdfrwt beam="1">  1       -1 0.10804556E-02 0.54100665E+02</pdfrwt>
<totfact> 0.41574338E+05</totfact>
</mgrwt>
</event>
<event>
 4    1  0.1893769E-002  0.4892374E+02  0.7818608E-02  0.1451235E+00
         -1   -1    0    0  501    0 -0.00000000000E+00  0.00000000000E+00  0.89588505098E+00  0.89589922768E+00  0.50400000000E-02 0. -1.
          1   -1    0    0    0  501  0.00000000000E+00 -0.00000000000E+00 -0.66791875298E+03  0.66791875300E+03  0.50400000000E-02 0. -1.
          2    1    1    2    0  502  0.22386330374E+02  0.10624610256E+01 -0.46752927071E+03  0.46806612310E+03  0.25500000000E-02 0.  1.
         -2    1    1    2  502    0 -0.22386330374E+02 -0.10624610256E+01 -0.19949359721E+03  0.20074852913E+03  0.25500000000E-02 0.  1.
<mgrwt>
<rscale>  0 0.48923744E+02</rscale>
<asrwt>0</asrwt>
<pdfrwt beam="2">  1        1 0.10275633E+00 0.48923744E+02</pdfrwt>
<pdfrwt beam="1">  1       -1 0.13783010E-03 0.48923744E+02</pdfrwt>
<totfact> 0.70038217E+05</totfact>
</mgrwt>
</event>
<event>
 4    1  0.1893769E-002  0.7471309E+02  0.7818608E-02  0.1344762E+00
         -1   -1    0    0  501    0 -0.00000000000E+00  0.00000000000E+00  0.16364191456E+01  0.16364269069E+01  0.50400000000E-02 0. -1.
          1   -1    0    0    0  501  0.00000000000E+00 -0.00000000000E+00 -0.85278169317E+03  0.85278169319E+03  0.50400000000E-02 0. -1.
          2    1    1    2    0  502 -0.78418045655E+01  0.32033458828E+02 -0.22491250383E+03  0.22731755490E+03  0.25500000000E-02 0.  1.
         -2    1    1    2  502    0  0.78418045655E+01 -0.32033458828E+02 -0.62623277020E+03  0.62710056519E+03  0.25500000000E-02 0.  1.
<mgrwt>
<rscale>  0 0.74713094E+02</rscale>
<asrwt>0</asrwt>
<pdfrwt beam="2">  1        1 0.13119683E+00 0.74713094E+02</pdfrwt>
<pdfrwt beam="1">  1       -1 0.25175807E-03 0.74713094E+02</pdfrwt>
<totfact> 0.23633219E+05</totfact>
</mgrwt>
</event>
<event>
 4    1  0.1893769E-002  0.4635271E+02  0.7818608E-02  0.1466069E+00
         -1   -1    0    0  501    0 -0.00000000000E+00  0.00000000000E+00  0.24666638005E+02  0.24666638520E+02  0.50400000000E-02 0. -1.
          1   -1    0    0    0  501  0.00000000000E+00 -0.00000000000E+00 -0.21776107004E+02  0.21776107587E+02  0.50400000000E-02 0. -1.
          2    1    1    2    0  502  0.17046478462E+02 -0.13453519197E+02 -0.66676081606E+01  0.22716439241E+02  0.25500000000E-02 0.  1.
         -2    1    1    2  502    0 -0.17046478462E+02  0.13453519197E+02  0.95581391624E+01  0.23726306865E+02  0.25500000000E-02 0.  1.
<mgrwt>
<rscale>  0 0.46352708E+02</rscale>
<asrwt>0</asrwt>
<pdfrwt beam="2">  1        1 0.33501704E-02 0.46352708E+02</pdfrwt>
<pdfrwt beam="1">  1       -1 0.37948675E-02 0.46352708E+02</pdfrwt>
<totfact> 0.52581936E+05</totfact>
</mgrwt>
</event>
<event>
 4    1  0.1893769E-002  0.4214432E+02  0.7818608E-02  0.1492999E+00
          1   -1    0    0    0  501  0.00000000000E+00  0.00000000000E+00  0.28442759946E+03  0.28442759950E+03  0.50400000000E-02 0. -1.
         -1   -1    0    0  501    0 -0.00000000000E+00 -0.00000000000E+00 -0.15611521992E+01  0.15611603347E+01  0.50400000000E-02 0. -1.
          2    1    1    2    0  502  0.18104444868E+02  0.10770817074E+02  0.14485666875E+03  0.14638044921E+03  0.25500000000E-02 0.  1.
         -2    1    1    2  502    0 -0.18104444868E+02 -0.10770817074E+02  0.13800977851E+03  0.13960831063E+03  0.25500000000E-02 0.  1.
<mgrwt>
<rscale>  0 0.42144321E+02</rscale>
<asrwt>0</asrwt>
<pdfrwt beam="1">  1        1 0.43758130E-01 0.42144321E+02</pdfrwt>
<pdfrwt beam="2">  1       -1 0.24017769E-03 0.42144321E+02</pdfrwt>
<totfact> 0.91194517E+05</totfact>
</mgrwt>
</event>
<event>
 4    1  0.1893769E-002  0.5198016E+02  0.7818608E-02  0.1434945E+00
         -1   -1    0    0  501    0 -0.00000000000E+00  0.00000000000E+00  0.91769910080E+02  0.91769910218E+02  0.50400000000E-02 0. -1.
          1   -1    0    0    0  501  0.00000000000E+00 -0.00000000000E+00 -0.73606289864E+01  0.73606307119E+01  0.50400000000E-02 0. -1.
          2    1    1    2    0  502  0.16746208341E+02 -0.18081250187E+02  0.26464871056E+02  0.36162916207E+02  0.25500000000E-02 0.  1.
         -2    1    1    2  502    0 -0.16746208341E+02  0.18081250187E+02  0.57944410038E+02  0.62967624723E+02  0.25500000000E-02 0.  1.
<mgrwt>
<rscale>  0 0.51980164E+02</rscale>
<asrwt>0</asrwt>
<pdfrwt beam="2">  1        1 0.11324046E-02 0.51980164E+02</pdfrwt>
<pdfrwt beam="1">  1       -1 0.14118448E-01 0.51980164E+02</pdfrwt>
<totfact> 0.34282057E+05</totfact>
</mgrwt>
</event>
<event>
 4    1  0.1893769E-002  0.8942872E+02  0.7818608E-02  0.1304241E+00
         -1   -1    0    0  501    0 -0.00000000000E+00  0.00000000000E+00  0.30398573841E+03  0.30398573846E+03  0.50400000000E-02 0. -1.
          1   -1    0    0    0  501  0.00000000000E+00 -0.00000000000E+00 -0.65771962142E+01  0.65771981452E+01  0.50400000000E-02 0. -1.
          2    1    1    2    0  502  0.36546616624E+02  0.12484239588E+02  0.70443204852E+02  0.80335275820E+02  0.25500000000E-02 0.  1.
         -2    1    1    2  502    0 -0.36546616624E+02 -0.12484239588E+02  0.22696533735E+03  0.23022766078E+03  0.25500000000E-02 0.  1.
<mgrwt>
<rscale>  0 0.89428724E+02</rscale>
<asrwt>0</asrwt>
<pdfrwt beam="2">  1        1 0.10118764E-02 0.89428724E+02</pdfrwt>
<pdfrwt beam="1">  1       -1 0.46767040E-01 0.89428724E+02</pdfrwt>
<totfact> 0.63397021E+04</totfact>
</mgrwt>
</event>
<event>
 4    1  0.1893769E-002  0.5541698E+02  0.7818608E-02  0.1418137E+00
          1   -1    0    0    0  501  0.00000000000E+00  0.00000000000E+00  0.54387642166E+03  0.54387642169E+03  0.50400000000E-02 0.  1.
         -1   -1    0    0  501    0 -0.00000000000E+00 -0.00000000000E+00 -0.14116405856E+01  0.14116495828E+01  0.50400000000E-02 0.  1.
          2    1    1    2    0  502 -0.87998300890E+00 -0.24931476389E+02  0.15257995081E+03  0.15460593223E+03  0.25500000000E-02 0.  1.
         -2    1    1    2  502    0  0.87998300890E+00  0.24931476389E+02  0.38988483027E+03  0.39068213904E+03  0.25500000000E-02 0.  1.
<mgrwt>
<rscale>  0 0.55416983E+02</rscale>
<asrwt>0</asrwt>
<pdfrwt beam="1">  1        1 0.83673376E-01 0.55416983E+02</pdfrwt>
<pdfrwt beam="2">  1       -1 0.21717596E-03 0.55416983E+02</pdfrwt>
<totfact> 0.50810839E+05</totfact>
</mgrwt>
</event>
<event>
 4    1  0.1893769E-002  0.9427209E+02  0.7818608E-02  0.1292824E+00
         -1   -1    0    0  501    0 -0.00000000000E+00  0.00000000000E+00  0.61623220873E+01  0.61623241484E+01  0.50400000000E-02 0. -1.
          1   -1    0    0    0  501  0.00000000000E+00 -0.00000000000E+00 -0.36054694899E+03  0.36054694903E+03  0.50400000000E-02 0. -1.
          2    1    1    2    0  502 -0.21665304278E+02  0.28810297654E+02 -0.29533194334E+03  0.29752373926E+03  0.25500000000E-02 0.  1.
         -2    1    1    2  502    0  0.21665304278E+02 -0.28810297654E+02 -0.59052683564E+02  0.69185533914E+02  0.25500000000E-02 0.  1.
<mgrwt>
<rscale>  0 0.94272092E+02</rscale>
<asrwt>0</asrwt>
<pdfrwt beam="2">  1        1 0.55468745E-01 0.94272092E+02</pdfrwt>
<pdfrwt beam="1">  1       -1 0.94805000E-03 0.94272092E+02</pdfrwt>
<totfact> 0.12124944E+05</totfact>
</mgrwt>
</event>
<event>
 4    1  0.1893769E-002  0.8479060E+02  0.7818608E-02  0.1315981E+00
          1   -1    0    0    0  501  0.00000000000E+00  0.00000000000E+00  0.68857657414E+02  0.68857657599E+02  0.50400000000E-02 0. -1.
         -1   -1    0    0  501    0 -0.00000000000E+00 -0.00000000000E+00 -0.26102566708E+02  0.26102567195E+02  0.50400000000E-02 0. -1.
          2    1    1    2    0  502 -0.33433877424E+02 -0.14055027382E+02  0.45965062261E+02  0.58550447560E+02  0.25500000000E-02 0.  1.
         -2    1    1    2  502    0  0.33433877424E+02  0.14055027382E+02 -0.32099715549E+01  0.36409777234E+02  0.25500000000E-02 0.  1.
<mgrwt>
<rscale>  0 0.84790604E+02</rscale>
<asrwt>0</asrwt>
<pdfrwt beam="1">  1        1 0.10593486E-01 0.84790604E+02</pdfrwt>
<pdfrwt beam="2">  1       -1 0.40157796E-02 0.84790604E+02</pdfrwt>
<totfact> 0.12010886E+05</totfact>
</mgrwt>
</event>
<event>
 4    1  0.1893769E-002  0.4337403E+02  0.7818608E-02  0.1484755E+00
          1   -1    0    0    0  501  0.00000000000E+00  0.00000000000E+00  0.24234002668E+01  0.24234055077E+01  0.50400000000E-02 0. -1.
         -1   -1    0    0  501    0 -0.00000000000E+00 -0.00000000000E+00 -0.19407695516E+03  0.19407695523E+03  0.50400000000E-02 0. -1.
          2    1    1    2    0  502  0.20187182859E+02  0.75658063874E+01 -0.10651199743E+03  0.10867184263E+03  0.25500000000E-02 0.  1.
         -2    1    1    2  502    0 -0.20187182859E+02 -0.75658063874E+01 -0.85141557468E+02  0.87828518105E+02  0.25500000000E-02 0.  1.
<mgrwt>
<rscale>  0 0.43374032E+02</rscale>
<asrwt>0</asrwt>
<pdfrwt beam="1">  1        1 0.37283137E-03 0.43374032E+02</pdfrwt>
<pdfrwt beam="2">  1       -1 0.29857981E-01 0.43374032E+02</pdfrwt>
<totfact> 0.45851793E+05</totfact>
</mgrwt>
</event>
<event>
 4    1  0.1893769E-002  0.6422780E+02  0.7818608E-02  0.1380900E+00
          1   -1    0    0    0  501  0.00000000000E+00  0.00000000000E+00  0.16227102019E+02  0.16227102802E+02  0.50400000000E-02 0.  1.
         -1   -1    0    0  501    0 -0.00000000000E+00 -0.00000000000E+00 -0.63554324209E+02  0.63554324409E+02  0.50400000000E-02 0.  1.
          2    1    1    2    0  502  0.10490156431E+02 -0.29722611478E+02 -0.31303221594E+02  0.44422614778E+02  0.25500000000E-02 0. -1.
         -2    1    1    2  502    0 -0.10490156431E+02  0.29722611478E+02 -0.16024000596E+02  0.35358812433E+02  0.25500000000E-02 0. -1.
<mgrwt>
<rscale>  0 0.64227799E+02</rscale>
<asrwt>0</asrwt>
<pdfrwt beam="1">  1        1 0.24964773E-02 0.64227799E+02</pdfrwt>
<pdfrwt beam="2">  1       -1 0.97775883E-02 0.64227799E+02</pdfrwt>
<totfact> 0.21309914E+05</totfact>
</mgrwt>
</event>
<event>
 4    1  0.1893769E-002  0.6338396E+02  0.7818608E-02  0.1384156E+00
         -1   -1    0    0  501    0 -0.00000000000E+00  0.00000000000E+00  0.84792978347E+00  0.84794476193E+00  0.50400000000E-02 0.  1.
          1   -1    0    0    0  501  0.00000000000E+00 -0.00000000000E+00 -0.11844997744E+04  0.11844997744E+04  0.50400000000E-02 0.  1.
          2    1    1    2    0  502 -0.22772595900E+02 -0.20904536808E+02 -0.46119828269E+03  0.46223310866E+03  0.25500000000E-02 0.  1.
         -2    1    1    2  502    0  0.22772595900E+02  0.20904536808E+02 -0.72245356196E+03  0.72311461054E+03  0.25500000000E-02 0.  1.
<mgrwt>
<rscale>  0 0.63383958E+02</rscale>
<asrwt>0</asrwt>
<pdfrwt beam="2">  1        1 0.18222941E+00 0.63383958E+02</pdfrwt>
<pdfrwt beam="1">  1       -1 0.13045284E-03 0.63383958E+02</pdfrwt>
<totfact> 0.32928721E+05</totfact>
</mgrwt>
</event>
<event>
 4    1  0.1893769E-002  0.5797068E+02  0.7818608E-02  0.1406551E+00
          1   -1    0    0    0  501  0.00000000000E+00  0.00000000000E+00  0.52837112118E+03  0.52837112120E+03  0.50400000000E-02 0.  1.
         -1   -1    0    0  501    0 -0.00000000000E+00 -0.00000000000E+00 -0.15900711482E+01  0.15900791358E+01  0.50400000000E-02 0.  1.
          2    1    1    2    0  502  0.12212195028E+02  0.26285999495E+02  0.26118289898E+03  0.26278622149E+03  0.25500000000E-02 0.  1.
         -2    1    1    2  502    0 -0.12212195028E+02 -0.26285999495E+02  0.26559815105E+03  0.26717497885E+03  0.25500000000E-02 0.  1.
<mgrwt>
<rscale>  0 0.57970675E+02</rscale>
<asrwt>0</asrwt>
<pdfrwt beam="1">  1        1 0.81287872E-01 0.57970675E+02</pdfrwt>
<pdfrwt beam="2">  1       -1 0.24462693E-03 0.57970675E+02</pdfrwt>
<totfact> 0.45240221E+05</totfact>
</mgrwt>
</event>
<event>
 4    1  0.1893769E-002  0.6628493E+02  0.7818608E-02  0.1373202E+00
          1   -1    0    0    0  501  0.00000000000E+00  0.00000000000E+00  0.12282570246E+04  0.12282570246E+04  0.50400000000E-02 0. -1.
         -1   -1    0    0  501    0 -0.00000000000E+00 -0.00000000000E+00 -0.89428697423E+00  0.89430117627E+00  0.50400000000E-02 0. -1.
          2    1    1    2    0  502 -0.17678913064E+02 -0.14885799510E+02  0.10541779015E+04  0.10544312111E+04  0.25500000000E-02 0.  1.
         -2    1    1    2  502    0  0.17678913064E+02  0.14885799510E+02  0.17318483615E+03  0.17472011468E+03  0.25500000000E-02 0.  1.
<mgrwt>
<rscale>  0 0.66284930E+02</rscale>
<asrwt>0</asrwt>
<pdfrwt beam="1">  1        1 0.18896360E+00 0.66284930E+02</pdfrwt>
<pdfrwt beam="2">  1       -1 0.13758299E-03 0.66284930E+02</pdfrwt>
<totfact> 0.28872178E+05</totfact>
</mgrwt>
</event>
<event>
 4    1  0.1893769E-002  0.4698909E+02  0.7818608E-02  0.1462293E+00
         -1   -1    0    0  501    0 -0.00000000000E+00  0.00000000000E+00  0.11385762434E+01  0.11385873983E+01  0.50400000000E-02 0.  1.
          1   -1    0    0    0  501  0.00000000000E+00 -0.00000000000E+00 -0.48480800456E+03  0.48480800458E+03  0.50400000000E-02 0.  1.
          2    1    1    2    0  502  0.12737309702E+02 -0.19637824083E+02 -0.26280156644E+03  0.26384189683E+03  0.25500000000E-02 0. -1.
         -2    1    1    2  502    0 -0.12737309702E+02  0.19637824083E+02 -0.22086786187E+03  0.22210469515E+03  0.25500000000E-02 0. -1.
<mgrwt>
<rscale>  0 0.46989088E+02</rscale>
<asrwt>0</asrwt>
<pdfrwt beam="2">  1        1 0.74585683E-01 0.46989088E+02</pdfrwt>
<pdfrwt beam="1">  1       -1 0.17516682E-03 0.46989088E+02</pdfrwt>
<totfact> 0.75724385E+05</totfact>
</mgrwt>
</event>
<event>
 4    1  0.1893769E-002  0.6870308E+02  0.7818608E-02  0.1364560E+00
         -1   -1    0    0  501    0 -0.00000000000E+00  0.00000000000E+00  0.50882473805E+03  0.50882473807E+03  0.50400000000E-02 0. -1.
          1   -1    0    0    0  501  0.00000000000E+00 -0.00000000000E+00 -0.23191228146E+01  0.23191282911E+01  0.50400000000E-02 0. -1.
          2    1    1    2    0  502 -0.17383318084E+02  0.15721364571E+02  0.44009458754E+03  0.44071826266E+03  0.25500000000E-02 0. -1.
         -2    1    1    2  502    0  0.17383318084E+02 -0.15721364571E+02  0.66411027691E+02  0.70425603704E+02  0.25500000000E-02 0. -1.
<mgrwt>
<rscale>  0 0.68703085E+02</rscale>
<asrwt>0</asrwt>
<pdfrwt beam="2">  1        1 0.35678867E-03 0.68703085E+02</pdfrwt>
<pdfrwt beam="1">  1       -1 0.78280702E-01 0.68703085E+02</pdfrwt>
<totfact> 0.96911117E+04</totfact>
</mgrwt>
</event>
<event>
 4    1  0.1893769E-002  0.4731121E+02  0.7818608E-02  0.1460408E+00
          1   -1    0    0    0  501  0.00000000000E+00  0.00000000000E+00  0.15347966222E+04  0.15347966222E+04  0.50400000000E-02 0. -1.
         -1   -1    0    0  501    0 -0.00000000000E+00 -0.00000000000E+00 -0.36458316114E+00  0.36461799597E+00  0.50400000000E-02 0. -1.
          2    1    1    2    0  502 -0.19637703190E+02 -0.11842747792E+02  0.57885548770E+03  0.57930955948E+03  0.25500000000E-02 0. -1.
         -2    1    1    2  502    0  0.19637703190E+02  0.11842747792E+02  0.95557655133E+03  0.95585168071E+03  0.25500000000E-02 0. -1.
<mgrwt>
<rscale>  0 0.47311214E+02</rscale>
<asrwt>0</asrwt>
<pdfrwt beam="1">  1        1 0.23612840E+00 0.47311214E+02</pdfrwt>
<pdfrwt beam="2">  1       -1 0.56091010E-04 0.47311214E+02</pdfrwt>
<totfact> 0.58313295E+05</totfact>
</mgrwt>
</event>
<event>
 4    1  0.1893769E-002  0.6609770E+02  0.7818608E-02  0.1373889E+00
         -1   -1    0    0  501    0 -0.00000000000E+00  0.00000000000E+00  0.29939404478E+01  0.29939446899E+01  0.50400000000E-02 0. -1.
          1   -1    0    0    0  501  0.00000000000E+00 -0.00000000000E+00 -0.36481213550E+03  0.36481213553E+03  0.50400000000E-02 0. -1.
          2    1    1    2    0  502  0.22093789453E+02  0.31079669260E+01 -0.31657898926E+03  0.31736422521E+03  0.25500000000E-02 0.  1.
         -2    1    1    2  502    0 -0.22093789453E+02 -0.31079669260E+01 -0.45239205784E+02  0.50441855014E+02  0.25500000000E-02 0.  1.
<mgrwt>
<rscale>  0 0.66097703E+02</rscale>
<asrwt>0</asrwt>
<pdfrwt beam="2">  1        1 0.56124909E-01 0.66097703E+02</pdfrwt>
<pdfrwt beam="1">  1       -1 0.46060684E-03 0.66097703E+02</pdfrwt>
<totfact> 0.30785018E+05</totfact>
</mgrwt>
</event>
<event>
 4    1  0.1893769E-002  0.4284963E+02  0.7818608E-02  0.1488230E+00
         -1   -1    0    0  501    0 -0.00000000000E+00  0.00000000000E+00  0.62507826290E+02  0.62507826493E+02  0.50400000000E-02 0.  1.
          1   -1    0    0    0  501  0.00000000000E+00 -0.00000000000E+00 -0.73434442383E+01  0.73434459678E+01  0.50400000000E-02 0.  1.
          2    1    1    2    0  502  0.17713204440E+02  0.12048429989E+02  0.27065351479E+02  0.34517467085E+02  0.25500000000E-02 0. -1.
         -2    1    1    2  502    0 -0.17713204440E+02 -0.12048429989E+02  0.28099030572E+02  0.35333805376E+02  0.25500000000E-02 0. -1.
<mgrwt>
<rscale>  0 0.42849635E+02</rscale>
<asrwt>0</asrwt>
<pdfrwt beam="2">  1        1 0.11297608E-02 0.42849635E+02</pdfrwt>
<pdfrwt beam="1">  1       -1 0.96165889E-02 0.42849635E+02</pdfrwt>
<totfact> 0.58089552E+05</totfact>
</mgrwt>
</event>
<event>
 4    1  0.1893769E-002  0.6596593E+02  0.7818608E-02  0.1374374E+00
          1   -1    0    0    0  501  0.00000000000E+00  0.00000000000E+00  0.87251989112E+01  0.87252003668E+01  0.50400000000E-02 0. -1.
         -1   -1    0    0  501    0 -0.00000000000E+00 -0.00000000000E+00 -0.12468206654E+03  0.12468206665E+03  0.50400000000E-02 0. -1.
          2    1    1    2    0  502  0.29762626759E+02 -0.90215594610E+01 -0.80194423077E+02  0.86013649997E+02  0.25500000000E-02 0.  1.
         -2    1    1    2  502    0 -0.29762626759E+02  0.90215594610E+01 -0.35762444556E+02  0.47393617015E+02  0.25500000000E-02 0.  1.
<mgrwt>
<rscale>  0 0.65965929E+02</rscale>
<asrwt>0</asrwt>
<pdfrwt beam="1">  1        1 0.13423385E-02 0.65965929E+02</pdfrwt>
<pdfrwt beam="2">  1       -1 0.19181855E-01 0.65965929E+02</pdfrwt>
<totfact> 0.17860929E+05</totfact>
</mgrwt>
</event>
<event>
 4    1  0.1893769E-002  0.4368889E+02  0.7818608E-02  0.1482697E+00
          1   -1    0    0    0  501  0.00000000000E+00  0.00000000000E+00  0.59870379505E+02  0.59870379717E+02  0.50400000000E-02 0.  1.
         -1   -1    0    0  501    0 -0.00000000000E+00 -0.00000000000E+00 -0.79702128786E+01  0.79702144721E+01  0.50400000000E-02 0.  1.
          2    1    1    2    0  502 -0.21814107049E+02  0.22608697293E+00  0.27702314194E+02  0.35260808270E+02  0.25500000000E-02 0.  1.
         -2    1    1    2  502    0  0.21814107049E+02 -0.22608697293E+00  0.24197852432E+02  0.32579785919E+02  0.25500000000E-02 0.  1.
<mgrwt>
<rscale>  0 0.43688888E+02</rscale>
<asrwt>0</asrwt>
<pdfrwt beam="1">  1        1 0.92108278E-02 0.43688888E+02</pdfrwt>
<pdfrwt beam="2">  1       -1 0.12261867E-02 0.43688888E+02</pdfrwt>
<totfact> 0.66748335E+05</totfact>
</mgrwt>
</event>
<event>
 4    1  0.1893769E-002  0.7515974E+02  0.7818608E-02  0.1343377E+00
          1   -1    0    0    0  501  0.00000000000E+00  0.00000000000E+00  0.39611963662E+03  0.39611963665E+03  0.50400000000E-02 0.  1.
         -1   -1    0    0  501    0 -0.00000000000E+00 -0.00000000000E+00 -0.35652008958E+01  0.35652044583E+01  0.50400000000E-02 0.  1.
          2    1    1    2    0  502 -0.35173636485E+02  0.13152549802E+02  0.20393287187E+03  0.20736149716E+03  0.25500000000E-02 0.  1.
         -2    1    1    2  502    0  0.35173636485E+02 -0.13152549802E+02  0.18862156385E+03  0.19232334394E+03  0.25500000000E-02 0.  1.
<mgrwt>
<rscale>  0 0.75159745E+02</rscale>
<asrwt>0</asrwt>
<pdfrwt beam="1">  1        1 0.60941494E-01 0.75159745E+02</pdfrwt>
<pdfrwt beam="2">  1       -1 0.54849262E-03 0.75159745E+02</pdfrwt>
<totfact> 0.22381776E+05</totfact>
</mgrwt>
</event>
<event>
 4    1  0.1893769E-002  0.9050624E+02  0.7818608E-02  0.1301630E+00
         -1   -1    0    0  501    0 -0.00000000000E+00  0.00000000000E+00  0.14208794604E+02  0.14208795498E+02  0.50400000000E-02 0.  1.
          1   -1    0    0    0  501  0.00000000000E+00 -0.00000000000E+00 -0.14412517132E+03  0.14412517141E+03  0.50400000000E-02 0.  1.
          2    1    1    2    0  502 -0.28011432444E+02 -0.35150890766E+02 -0.74152176070E+02  0.86710845294E+02  0.25500000000E-02 0. -1.
         -2    1    1    2  502    0  0.28011432444E+02  0.35150890766E+02 -0.55764200643E+02  0.71623121609E+02  0.25500000000E-02 0. -1.
<mgrwt>
<rscale>  0 0.90506244E+02</rscale>
<asrwt>0</asrwt>
<pdfrwt beam="2">  1        1 0.22173102E-01 0.90506244E+02</pdfrwt>
<pdfrwt beam="1">  1       -1 0.21859686E-02 0.90506244E+02</pdfrwt>
<totfact> 0.11355463E+05</totfact>
</mgrwt>
</event>
<event>
 4    1  0.1893769E-002  0.4615099E+02  0.7818608E-02  0.1467282E+00
         -1   -1    0    0  501    0 -0.00000000000E+00  0.00000000000E+00  0.10777041930E+01  0.10777159780E+01  0.50400000000E-02 0.  1.
          1   -1    0    0    0  501  0.00000000000E+00 -0.00000000000E+00 -0.49408326640E+03  0.49408326643E+03  0.50400000000E-02 0.  1.
          2    1    1    2    0  502 -0.30562146964E+01  0.22101555887E+02 -0.18333795703E+03  0.18469062162E+03  0.25500000000E-02 0.  1.
         -2    1    1    2  502    0  0.30562146964E+01 -0.22101555887E+02 -0.30966760518E+03  0.31047036079E+03  0.25500000000E-02 0.  1.
<mgrwt>
<rscale>  0 0.46150993E+02</rscale>
<asrwt>0</asrwt>
<pdfrwt beam="2">  1        1 0.76012630E-01 0.46150993E+02</pdfrwt>
<pdfrwt beam="1">  1       -1 0.16580195E-03 0.46150993E+02</pdfrwt>
<totfact> 0.79323572E+05</totfact>
</mgrwt>
</event>
<event>
 4    1  0.1893769E-002  0.4695447E+02  0.7818608E-02  0.1462497E+00
          1   -1    0    0    0  501  0.00000000000E+00  0.00000000000E+00  0.55655535626E+03  0.55655535628E+03  0.50400000000E-02 0. -1.
         -1   -1    0    0  501    0 -0.00000000000E+00 -0.00000000000E+00 -0.99033621863E+00  0.99034904328E+00  0.50400000000E-02 0. -1.
          2    1    1    2    0  502 -0.13999325418E+02 -0.16132006657E+02  0.16207307745E+03  0.16347447872E+03  0.25500000000E-02 0.  1.
         -2    1    1    2  502    0  0.13999325418E+02  0.16132006657E+02  0.39349194259E+03  0.39407122661E+03  0.25500000000E-02 0.  1.
<mgrwt>
<rscale>  0 0.46954468E+02</rscale>
<asrwt>0</asrwt>
<pdfrwt beam="1">  1        1 0.85624057E-01 0.46954468E+02</pdfrwt>
<pdfrwt beam="2">  1       -1 0.15236013E-03 0.46954468E+02</pdfrwt>
<totfact> 0.76880862E+05</totfact>
</mgrwt>
</event>
<event>
 4    1  0.1893769E-002  0.5877756E+02  0.7818608E-02  0.1403035E+00
         -1   -1    0    0  501    0 -0.00000000000E+00  0.00000000000E+00  0.99444892321E+00  0.99446169482E+00  0.50400000000E-02 0. -1.
          1   -1    0    0    0  501  0.00000000000E+00 -0.00000000000E+00 -0.86851589313E+03  0.86851589314E+03  0.50400000000E-02 0. -1.
          2    1    1    2    0  502 -0.21465394513E+02 -0.16471931940E+02 -0.60347245989E+03  0.60407871801E+03  0.25500000000E-02 0. -1.
         -2    1    1    2  502    0  0.21465394513E+02  0.16471931940E+02 -0.26404898432E+03  0.26543163683E+03  0.25500000000E-02 0. -1.
<mgrwt>
<rscale>  0 0.58777555E+02</rscale>
<asrwt>0</asrwt>
<pdfrwt beam="2">  1        1 0.13361722E+00 0.58777555E+02</pdfrwt>
<pdfrwt beam="1">  1       -1 0.15299382E-03 0.58777555E+02</pdfrwt>
<totfact> 0.43555671E+05</totfact>
</mgrwt>
</event>
<event>
 4    1  0.1893769E-002  0.1226768E+03  0.7818608E-02  0.1238745E+00
          1   -1    0    0    0  501  0.00000000000E+00  0.00000000000E+00  0.17732861522E+04  0.17732861522E+04  0.50400000000E-02 0.  1.
         -1   -1    0    0  501    0 -0.00000000000E+00 -0.00000000000E+00 -0.21217079547E+01  0.21217139408E+01  0.50400000000E-02 0.  1.
          2    1    1    2    0  502  0.30566384764E+02  0.45321618998E+02  0.12882245831E+04  0.12893839341E+04  0.25500000000E-02 0. -1.
         -2    1    1    2  502    0 -0.30566384764E+02 -0.45321618998E+02  0.48293986114E+03  0.48602393204E+03  0.25500000000E-02 0. -1.
<mgrwt>
<rscale>  0 0.12267682E+03</rscale>
<asrwt>0</asrwt>
<pdfrwt beam="1">  1        1 0.27281422E+00 0.12267682E+03</pdfrwt>
<pdfrwt beam="2">  1       -1 0.32641591E-03 0.12267682E+03</pdfrwt>
<totfact> 0.42168570E+04</totfact>
</mgrwt>
</event>
<event>
 4    1  0.1893769E-002  0.4280274E+02  0.7818608E-02  0.1488544E+00
         -1   -1    0    0  501    0 -0.00000000000E+00  0.00000000000E+00  0.99583700319E+00  0.99584975701E+00  0.50400000000E-02 0. -1.
          1   -1    0    0    0  501  0.00000000000E+00 -0.00000000000E+00 -0.45993042293E+03  0.45993042296E+03  0.50400000000E-02 0. -1.
          2    1    1    2    0  502 -0.68776116464E+01 -0.19927720165E+02 -0.18975007481E+03  0.19091753840E+03  0.25500000000E-02 0.  1.
         -2    1    1    2  502    0  0.68776116464E+01  0.19927720165E+02 -0.26918451112E+03  0.27000873432E+03  0.25500000000E-02 0.  1.
<mgrwt>
<rscale>  0 0.42802742E+02</rscale>
<asrwt>0</asrwt>
<pdfrwt beam="2">  1        1 0.70758358E-01 0.42802742E+02</pdfrwt>
<pdfrwt beam="1">  1       -1 0.15320704E-03 0.42802742E+02</pdfrwt>
<totfact> 0.94590668E+05</totfact>
</mgrwt>
</event>
<event>
 4    1  0.1893769E-002  0.7678843E+02  0.7818608E-02  0.1338421E+00
          1   -1    0    0    0  501  0.00000000000E+00  0.00000000000E+00  0.17490370409E+01  0.17490443025E+01  0.50400000000E-02 0.  1.
         -1   -1    0    0  501    0 -0.00000000000E+00 -0.00000000000E+00 -0.84281394455E+03  0.84281394456E+03  0.50400000000E-02 0.  1.
          2    1    1    2    0  502  0.63380554640E+01 -0.28551637805E+02 -0.69411819515E+03  0.69473407561E+03  0.25500000000E-02 0. -1.
         -2    1    1    2  502    0 -0.63380554640E+01  0.28551637805E+02 -0.14694671236E+03  0.14982891326E+03  0.25500000000E-02 0. -1.
<mgrwt>
<rscale>  0 0.76788434E+02</rscale>
<asrwt>0</asrwt>
<pdfrwt beam="1">  1        1 0.26908385E-03 0.76788434E+02</pdfrwt>
<pdfrwt beam="2">  1       -1 0.12966336E+00 0.76788434E+02</pdfrwt>
<totfact> 0.48536469E+04</totfact>
</mgrwt>
</event>
<event>
 4    1  0.1893769E-002  0.7745161E+02  0.7818608E-02  0.1336443E+00
         -1   -1    0    0  501    0 -0.00000000000E+00  0.00000000000E+00  0.52919171386E+01  0.52919195387E+01  0.50400000000E-02 0. -1.
          1   -1    0    0    0  501  0.00000000000E+00 -0.00000000000E+00 -0.28339211919E+03  0.28339211924E+03  0.50400000000E-02 0. -1.
          2    1    1    2    0  502 -0.30364137335E+02  0.11525995489E+02 -0.21766471660E+03  0.22007443802E+03  0.25500000000E-02 0. -1.
         -2    1    1    2  502    0  0.30364137335E+02 -0.11525995489E+02 -0.60435485451E+02  0.68609600759E+02  0.25500000000E-02 0. -1.
<mgrwt>
<rscale>  0 0.77451610E+02</rscale>
<asrwt>0</asrwt>
<pdfrwt beam="2">  1        1 0.43598776E-01 0.77451610E+02</pdfrwt>
<pdfrwt beam="1">  1       -1 0.81414151E-03 0.77451610E+02</pdfrwt>
<totfact> 0.19505584E+05</totfact>
</mgrwt>
</event>
<event>
 4    1  0.1893769E-002  0.5190052E+02  0.7818608E-02  0.1435352E+00
          1   -1    0    0    0  501  0.00000000000E+00  0.00000000000E+00  0.13424681452E+02  0.13424682398E+02  0.50400000000E-02 0.  1.
         -1   -1    0    0  501    0 -0.00000000000E+00 -0.00000000000E+00 -0.50162528420E+02  0.50162528674E+02  0.50400000000E-02 0.  1.
          2    1    1    2    0  502  0.33044634198E+01  0.21719683689E+02 -0.35290173963E+02  0.41569947352E+02  0.25500000000E-02 0. -1.
         -2    1    1    2  502    0 -0.33044634198E+01 -0.21719683689E+02 -0.14476730062E+01  0.22017263719E+02  0.25500000000E-02 0. -1.
<mgrwt>
<rscale>  0 0.51900520E+02</rscale>
<asrwt>0</asrwt>
<pdfrwt beam="1">  1        1 0.20653357E-02 0.51900520E+02</pdfrwt>
<pdfrwt beam="2">  1       -1 0.77173120E-02 0.51900520E+02</pdfrwt>
<totfact> 0.37274341E+05</totfact>
</mgrwt>
</event>
<event>
 4    1  0.1893769E-002  0.4294534E+02  0.7818608E-02  0.1487592E+00
         -1   -1    0    0  501    0 -0.00000000000E+00  0.00000000000E+00  0.78042282840E+00  0.78043910249E+00  0.50400000000E-02 0. -1.
          1   -1    0    0    0  501  0.00000000000E+00 -0.00000000000E+00 -0.59079595850E+03  0.59079595853E+03  0.50400000000E-02 0. -1.
          2    1    1    2    0  502 -0.12395235648E+02  0.17048715647E+02 -0.23858885265E+03  0.23951814375E+03  0.25500000000E-02 0.  1.
         -2    1    1    2  502    0  0.12395235648E+02 -0.17048715647E+02 -0.35142668303E+03  0.35205825388E+03  0.25500000000E-02 0.  1.
<mgrwt>
<rscale>  0 0.42945336E+02</rscale>
<asrwt>0</asrwt>
<pdfrwt beam="2">  1        1 0.90891330E-01 0.42945336E+02</pdfrwt>
<pdfrwt beam="1">  1       -1 0.12006678E-03 0.42945336E+02</pdfrwt>
<totfact> 0.96044746E+05</totfact>
</mgrwt>
</event>
<event>
 4    1  0.1893769E-002  0.5488552E+02  0.7818608E-02  0.1420641E+00
          1   -1    0    0    0  501  0.00000000000E+00  0.00000000000E+00  0.31331319727E+01  0.31331360264E+01  0.50400000000E-02 0. -1.
         -1   -1    0    0  501    0 -0.00000000000E+00 -0.00000000000E+00 -0.24036794269E+03  0.24036794274E+03  0.50400000000E-02 0. -1.
          2    1    1    2    0  502 -0.70918691403E+01 -0.26164243738E+02 -0.13756647746E+03  0.14021197519E+03  0.25500000000E-02 0. -1.
         -2    1    1    2  502    0  0.70918691403E+01  0.26164243738E+02 -0.99668333257E+02  0.10328910358E+03  0.25500000000E-02 0. -1.
<mgrwt>
<rscale>  0 0.54885517E+02</rscale>
<asrwt>0</asrwt>
<pdfrwt beam="1">  1        1 0.48202081E-03 0.54885517E+02</pdfrwt>
<pdfrwt beam="2">  1       -1 0.36979669E-01 0.54885517E+02</pdfrwt>
<totfact> 0.24054644E+05</totfact>
</mgrwt>
</event>
<event>
 4    1  0.1893769E-002  0.8221476E+02  0.7818608E-02  0.1322881E+00
          1   -1    0    0    0  501  0.00000000000E+00  0.00000000000E+00  0.89598877524E+02  0.89598877665E+02  0.50400000000E-02 0. -1.
         -1   -1    0    0  501    0 -0.00000000000E+00 -0.00000000000E+00 -0.18859797411E+02  0.18859798085E+02  0.50400000000E-02 0. -1.
          2    1    1    2    0  502 -0.22768178923E+02  0.33831333692E+02  0.28531541898E+02  0.49769448464E+02  0.25500000000E-02 0. -1.
         -2    1    1    2  502    0  0.22768178923E+02 -0.33831333692E+02  0.42207538214E+02  0.58689227286E+02  0.25500000000E-02 0. -1.
<mgrwt>
<rscale>  0 0.82214761E+02</rscale>
<asrwt>0</asrwt>
<pdfrwt beam="1">  1        1 0.13784443E-01 0.82214761E+02</pdfrwt>
<pdfrwt beam="2">  1       -1 0.29015074E-02 0.82214761E+02</pdfrwt>
<totfact> 0.13585234E+05</totfact>
</mgrwt>
</event>
<event>
 4    1  0.1893769E-002  0.4810314E+02  0.7818608E-02  0.1455850E+00
         -1   -1    0    0  501    0 -0.00000000000E+00  0.00000000000E+00  0.35600806258E+03  0.35600806262E+03  0.50400000000E-02 0.  1.
          1   -1    0    0    0  501  0.00000000000E+00 -0.00000000000E+00 -0.16248971802E+01  0.16249049966E+01  0.50400000000E-02 0.  1.
          2    1    1    2    0  502  0.17619122562E+02 -0.16312965872E+02  0.16685877914E+03  0.16857757418E+03  0.25500000000E-02 0.  1.
         -2    1    1    2  502    0 -0.17619122562E+02  0.16312965872E+02  0.18752438627E+03  0.18905539343E+03  0.25500000000E-02 0.  1.
<mgrwt>
<rscale>  0 0.48103135E+02</rscale>
<asrwt>0</asrwt>
<pdfrwt beam="2">  1        1 0.24998470E-03 0.48103135E+02</pdfrwt>
<pdfrwt beam="1">  1       -1 0.54770490E-01 0.48103135E+02</pdfrwt>
<totfact> 0.28727688E+05</totfact>
</mgrwt>
</event>
<event>
 4    1  0.1893769E-002  0.4528845E+02  0.7818608E-02  0.1472549E+00
          1   -1    0    0    0  501  0.00000000000E+00  0.00000000000E+00  0.18123298242E+04  0.18123298242E+04  0.50400000000E-02 0.  1.
         -1   -1    0    0  501    0 -0.00000000000E+00 -0.00000000000E+00 -0.28290663886E+00  0.28295152926E+00  0.50400000000E-02 0.  1.
          2    1    1    2    0  502 -0.22196799773E+02  0.22251398949E+01  0.75043633772E+03  0.75076783772E+03  0.25500000000E-02 0.  1.
         -2    1    1    2  502    0  0.22196799773E+02 -0.22251398949E+01  0.10616105798E+04  0.10618449380E+04  0.25500000000E-02 0.  1.
<mgrwt>
<rscale>  0 0.45288446E+02</rscale>
<asrwt>0</asrwt>
<pdfrwt beam="1">  1        1 0.27881389E+00 0.45288446E+02</pdfrwt>
<pdfrwt beam="2">  1       -1 0.43528502E-04 0.45288446E+02</pdfrwt>
<totfact> 0.54936366E+05</totfact>
</mgrwt>
</event>
<event>
 4    1  0.1893769E-002  0.4974459E+02  0.7818608E-02  0.1446724E+00
          1   -1    0    0    0  501  0.00000000000E+00  0.00000000000E+00  0.23368514084E+01  0.23368568434E+01  0.50400000000E-02 0.  1.
         -1   -1    0    0  501    0 -0.00000000000E+00 -0.00000000000E+00 -0.26472816348E+03  0.26472816352E+03  0.50400000000E-02 0.  1.
          2    1    1    2    0  502  0.34292823851E+01  0.22014509434E+02 -0.71839674921E+02  0.75215274397E+02  0.25500000000E-02 0. -1.
         -2    1    1    2  502    0 -0.34292823851E+01 -0.22014509434E+02 -0.19055163715E+03  0.19184974597E+03  0.25500000000E-02 0. -1.
<mgrwt>
<rscale>  0 0.49744592E+02</rscale>
<asrwt>0</asrwt>
<pdfrwt beam="1">  1        1 0.35951623E-03 0.49744592E+02</pdfrwt>
<pdfrwt beam="2">  1       -1 0.40727387E-01 0.49744592E+02</pdfrwt>
<totfact> 0.29749794E+05</totfact>
</mgrwt>
</event>
<event>
 4    1  0.1893769E-002  0.4264329E+02  0.7818608E-02  0.1489614E+00
         -1   -1    0    0  501    0 -0.00000000000E+00  0.00000000000E+00  0.44084413459E+03  0.44084413462E+03  0.50400000000E-02 0.  1.
          1   -1    0    0    0  501  0.00000000000E+00 -0.00000000000E+00 -0.10312255520E+01  0.10312378681E+01  0.50400000000E-02 0.  1.
          2    1    1    2    0  502  0.18637037928E+02 -0.98684171670E+01  0.25248974558E+03  0.25336889405E+03  0.25500000000E-02 0.  1.
         -2    1    1    2  502    0 -0.18637037928E+02  0.98684171670E+01  0.18732316346E+03  0.18850647844E+03  0.25500000000E-02 0.  1.
<mgrwt>
<rscale>  0 0.42643286E+02</rscale>
<asrwt>0</asrwt>
<pdfrwt beam="2">  1        1 0.15865084E-03 0.42643286E+02</pdfrwt>
<pdfrwt beam="1">  1       -1 0.67822260E-01 0.42643286E+02</pdfrwt>
<totfact> 0.34686621E+05</totfact>
</mgrwt>
</event>
<event>
 4    1  0.1893769E-002  0.7606034E+02  0.7818608E-02  0.1340619E+00
          1   -1    0    0    0  501  0.00000000000E+00  0.00000000000E+00  0.53329873820E+03  0.53329873822E+03  0.50400000000E-02 0.  1.
         -1   -1    0    0  501    0 -0.00000000000E+00 -0.00000000000E+00 -0.27119745329E+01  0.27119792162E+01  0.50400000000E-02 0.  1.
          2    1    1    2    0  502 -0.35765347606E+02  0.11904004832E+02  0.22975685423E+03  0.23282842931E+03  0.25500000000E-02 0.  1.
         -2    1    1    2  502    0  0.35765347606E+02 -0.11904004832E+02  0.30082990944E+03  0.30318228813E+03  0.25500000000E-02 0.  1.
<mgrwt>
<rscale>  0 0.76060341E+02</rscale>
<asrwt>0</asrwt>
<pdfrwt beam="1">  1        1 0.82045937E-01 0.76060341E+02</pdfrwt>
<pdfrwt beam="2">  1       -1 0.41722733E-03 0.76060341E+02</pdfrwt>
<totfact> 0.22570169E+05</totfact>
</mgrwt>
</event>
<event>
 4    1  0.1893769E-002  0.6490530E+02  0.7818608E-02  0.1378328E+00
          1   -1    0    0    0  501  0.00000000000E+00  0.00000000000E+00  0.56783346742E+02  0.56783346966E+02  0.50400000000E-02 0. -1.
         -1   -1    0    0  501    0 -0.00000000000E+00 -0.00000000000E+00 -0.18547239382E+02  0.18547240066E+02  0.50400000000E-02 0. -1.
          2    1    1    2    0  502  0.15946702768E+02  0.27886043688E+02  0.24467706828E+02  0.40380656825E+02  0.25500000000E-02 0. -1.
         -2    1    1    2  502    0 -0.15946702768E+02 -0.27886043688E+02  0.13768400532E+02  0.34949930207E+02  0.25500000000E-02 0. -1.
<mgrwt>
<rscale>  0 0.64905296E+02</rscale>
<asrwt>0</asrwt>
<pdfrwt beam="1">  1        1 0.87358994E-02 0.64905296E+02</pdfrwt>
<pdfrwt beam="2">  1       -1 0.28534216E-02 0.64905296E+02</pdfrwt>
<totfact> 0.24001724E+05</totfact>
</mgrwt>
</event>
<event>
 4    1  0.1893769E-002  0.4950446E+02  0.7818608E-02  0.1448033E+00
          1   -1    0    0    0  501  0.00000000000E+00  0.00000000000E+00  0.25564820996E+01  0.25564870677E+01  0.50400000000E-02 0. -1.
         -1   -1    0    0  501    0 -0.00000000000E+00 -0.00000000000E+00 -0.23965444306E+03  0.23965444312E+03  0.50400000000E-02 0. -1.
          2    1    1    2    0  502  0.30336591361E+01  0.23778011786E+02 -0.14873979669E+03  0.15065896608E+03  0.25500000000E-02 0.  1.
         -2    1    1    2  502    0 -0.30336591361E+01 -0.23778011786E+02 -0.88358164270E+02  0.91551964108E+02  0.25500000000E-02 0.  1.
<mgrwt>
<rscale>  0 0.49504460E+02</rscale>
<asrwt>0</asrwt>
<pdfrwt beam="1">  1        1 0.39330551E-03 0.49504460E+02</pdfrwt>
<pdfrwt beam="2">  1       -1 0.36869897E-01 0.49504460E+02</pdfrwt>
<totfact> 0.31129182E+05</totfact>
</mgrwt>
</event>
<event>
 4    1  0.1893769E-002  0.4744972E+02  0.7818608E-02  0.1459603E+00
          1   -1    0    0    0  501  0.00000000000E+00  0.00000000000E+00  0.37016393715E+03  0.37016393718E+03  0.50400000000E-02 0.  1.
         -1   -1    0    0  501    0 -0.00000000000E+00 -0.00000000000E+00 -0.15205894044E+01  0.15205977569E+01  0.50400000000E-02 0.  1.
          2    1    1    2    0  502 -0.40081726012E+00 -0.23402086872E+02  0.15393259045E+03  0.15570183279E+03  0.25500000000E-02 0.  1.
         -2    1    1    2  502    0  0.40081726012E+00  0.23402086872E+02  0.21471075730E+03  0.21598270215E+03  0.25500000000E-02 0.  1.
<mgrwt>
<rscale>  0 0.47449717E+02</rscale>
<asrwt>0</asrwt>
<pdfrwt beam="1">  1        1 0.56948313E-01 0.47449717E+02</pdfrwt>
<pdfrwt beam="2">  1       -1 0.23393742E-03 0.47449717E+02</pdfrwt>
<totfact> 0.71192083E+05</totfact>
</mgrwt>
</event>
<event>
 4    1  0.1893769E-002  0.6527539E+02  0.7818608E-02  0.1376939E+00
         -1   -1    0    0  501    0 -0.00000000000E+00  0.00000000000E+00  0.22128966925E+02  0.22128967499E+02  0.50400000000E-02 0.  1.
          1   -1    0    0    0  501  0.00000000000E+00 -0.00000000000E+00 -0.48136864058E+02  0.48136864322E+02  0.50400000000E-02 0.  1.
          2    1    1    2    0  502  0.17542062526E+02 -0.27475790514E+02 -0.14731670506E+02  0.35772407585E+02  0.25500000000E-02 0.  1.
         -2    1    1    2  502    0 -0.17542062526E+02  0.27475790514E+02 -0.11276226627E+02  0.34493424235E+02  0.25500000000E-02 0.  1.
<mgrwt>
<rscale>  0 0.65275389E+02</rscale>
<asrwt>0</asrwt>
<pdfrwt beam="2">  1        1 0.74056714E-02 0.65275389E+02</pdfrwt>
<pdfrwt beam="1">  1       -1 0.34044565E-02 0.65275389E+02</pdfrwt>
<totfact> 0.23187444E+05</totfact>
</mgrwt>
</event>
<event>
 4    1  0.1893769E-002  0.6779473E+02  0.7818608E-02  0.1367757E+00
          1   -1    0    0    0  501  0.00000000000E+00  0.00000000000E+00  0.76000365934E+03  0.76000365936E+03  0.50400000000E-02 0. -1.
         -1   -1    0    0  501    0 -0.00000000000E+00 -0.00000000000E+00 -0.15118719536E+01  0.15118803543E+01  0.50400000000E-02 0. -1.
          2    1    1    2    0  502  0.16173166431E+02 -0.28389724986E+02  0.48064122888E+03  0.48175049424E+03  0.25500000000E-02 0. -1.
         -2    1    1    2  502    0 -0.16173166431E+02  0.28389724986E+02  0.27785055851E+03  0.27976504547E+03  0.25500000000E-02 0. -1.
<mgrwt>
<rscale>  0 0.67794732E+02</rscale>
<asrwt>0</asrwt>
<pdfrwt beam="1">  1        1 0.11692385E+00 0.67794732E+02</pdfrwt>
<pdfrwt beam="2">  1       -1 0.23259591E-03 0.67794732E+02</pdfrwt>
<totfact> 0.30690533E+05</totfact>
</mgrwt>
</event>
<event>
 4    1  0.1893769E-002  0.6030343E+02  0.7818608E-02  0.1396563E+00
         -1   -1    0    0  501    0 -0.00000000000E+00  0.00000000000E+00  0.49591296533E+00  0.49593857561E+00  0.50400000000E-02 0.  1.
          1   -1    0    0    0  501  0.00000000000E+00 -0.00000000000E+00 -0.18331896731E+04  0.18331896731E+04  0.50400000000E-02 0.  1.
          2    1    1    2    0  502  0.24431558154E+02  0.90334582920E+00 -0.37974971104E+03  0.38053588545E+03  0.25500000000E-02 0.  1.
         -2    1    1    2  502    0 -0.24431558154E+02 -0.90334582920E+00 -0.14529440491E+04  0.14531497263E+04  0.25500000000E-02 0.  1.
<mgrwt>
<rscale>  0 0.60303433E+02</rscale>
<asrwt>0</asrwt>
<pdfrwt beam="2">  1        1 0.28202376E+00 0.60303433E+02</pdfrwt>
<pdfrwt beam="1">  1       -1 0.76297741E-04 0.60303433E+02</pdfrwt>
<totfact> 0.26365067E+05</totfact>
</mgrwt>
</event>
<event>
 4    1  0.1893769E-002  0.8157597E+02  0.7818608E-02  0.1324638E+00
         -1   -1    0    0  501    0 -0.00000000000E+00  0.00000000000E+00  0.63998934322E+01  0.63998954167E+01  0.50400000000E-02 0.  1.
          1   -1    0    0    0  501  0.00000000000E+00 -0.00000000000E+00 -0.25995112443E+03  0.25995112448E+03  0.50400000000E-02 0.  1.
          2    1    1    2    0  502 -0.93042745485E+01  0.39711852307E+02 -0.12756883009E+03  0.13393060575E+03  0.25500000000E-02 0.  1.
         -2    1    1    2  502    0  0.93042745485E+01 -0.39711852307E+02 -0.12598240091E+03  0.13242041415E+03  0.25500000000E-02 0.  1.
<mgrwt>
<rscale>  0 0.81575971E+02</rscale>
<asrwt>0</asrwt>
<pdfrwt beam="2">  1        1 0.39992473E-01 0.81575971E+02</pdfrwt>
<pdfrwt beam="1">  1       -1 0.98459935E-03 0.81575971E+02</pdfrwt>
<totfact> 0.16741005E+05</totfact>
</mgrwt>
</event>
<event>
 4    1  0.1893769E-002  0.1968532E+03  0.7818608E-02  0.1152421E+00
          1   -1    0    0    0  501  0.00000000000E+00  0.00000000000E+00  0.54454851849E+02  0.54454852082E+02  0.50400000000E-02 0. -1.
         -1   -1    0    0  501    0 -0.00000000000E+00 -0.00000000000E+00 -0.17790504050E+03  0.17790504057E+03  0.50400000000E-02 0. -1.
          2    1    1    2    0  502  0.86389379557E+02 -0.31161791555E+02 -0.10351775918E+03  0.13838391751E+03  0.25500000000E-02 0. -1.
         -2    1    1    2  502    0 -0.86389379557E+02  0.31161791555E+02 -0.19932429469E+02  0.93975975143E+02  0.25500000000E-02 0. -1.
<mgrwt>
<rscale>  0 0.19685317E+03</rscale>
<asrwt>0</asrwt>
<pdfrwt beam="1">  1        1 0.83776696E-02 0.19685317E+03</pdfrwt>
<pdfrwt beam="2">  1       -1 0.27370006E-01 0.19685317E+03</pdfrwt>
<totfact> 0.94509521E+03</totfact>
</mgrwt>
</event>
<event>
 4    1  0.1893769E-002  0.7516966E+02  0.7818608E-02  0.1343346E+00
         -1   -1    0    0  501    0 -0.00000000000E+00  0.00000000000E+00  0.35446372689E+02  0.35446373047E+02  0.50400000000E-02 0. -1.
          1   -1    0    0    0  501  0.00000000000E+00 -0.00000000000E+00 -0.39852295567E+02  0.39852295885E+02  0.50400000000E-02 0. -1.
          2    1    1    2    0  502  0.87761469000E+01 -0.34712572975E+02  0.92462595534E+01  0.36979410477E+02  0.25500000000E-02 0. -1.
         -2    1    1    2  502    0 -0.87761469000E+01  0.34712572975E+02 -0.13652182431E+02  0.38319258456E+02  0.25500000000E-02 0. -1.
<mgrwt>
<rscale>  0 0.75169657E+02</rscale>
<asrwt>0</asrwt>
<pdfrwt beam="2">  1        1 0.61311224E-02 0.75169657E+02</pdfrwt>
<pdfrwt beam="1">  1       -1 0.54532882E-02 0.75169657E+02</pdfrwt>
<totfact> 0.15494795E+05</totfact>
</mgrwt>
</event>
<event>
 4    1  0.1893769E-002  0.5201680E+02  0.7818608E-02  0.1434757E+00
          1   -1    0    0    0  501  0.00000000000E+00  0.00000000000E+00  0.56769131189E+02  0.56769131413E+02  0.50400000000E-02 0. -1.
         -1   -1    0    0  501    0 -0.00000000000E+00 -0.00000000000E+00 -0.11915576375E+02  0.11915577441E+02  0.50400000000E-02 0. -1.
          2    1    1    2    0  502 -0.22316749580E+02 -0.13265699726E+02  0.20372302673E+02  0.33000709443E+02  0.25500000000E-02 0.  1.
         -2    1    1    2  502    0  0.22316749580E+02  0.13265699726E+02  0.24481252141E+02  0.35683999410E+02  0.25500000000E-02 0.  1.
<mgrwt>
<rscale>  0 0.52016804E+02</rscale>
<asrwt>0</asrwt>
<pdfrwt beam="1">  1        1 0.87337126E-02 0.52016804E+02</pdfrwt>
<pdfrwt beam="2">  1       -1 0.18331657E-02 0.52016804E+02</pdfrwt>
<totfact> 0.42695173E+05</totfact>
</mgrwt>
</event>
<event>
 4    1  0.1893769E-002  0.5426729E+02  0.7818608E-02  0.1423596E+00
         -1   -1    0    0  501    0 -0.00000000000E+00  0.00000000000E+00  0.10579428150E+02  0.10579429351E+02  0.50400000000E-02 0.  1.
          1   -1    0    0    0  501  0.00000000000E+00 -0.00000000000E+00 -0.69591150787E+02  0.69591150970E+02  0.50400000000E-02 0.  1.
          2    1    1    2    0  502  0.38410168612E+01  0.26860392299E+02 -0.29540305622E+02  0.40110643821E+02  0.25500000000E-02 0. -1.
         -2    1    1    2  502    0 -0.38410168612E+01 -0.26860392299E+02 -0.29471417015E+02  0.40059936500E+02  0.25500000000E-02 0. -1.
<mgrwt>
<rscale>  0 0.54267288E+02</rscale>
<asrwt>0</asrwt>
<pdfrwt beam="2">  1        1 0.10706331E-01 0.54267288E+02</pdfrwt>
<pdfrwt beam="1">  1       -1 0.16276045E-02 0.54267288E+02</pdfrwt>
<totfact> 0.39176317E+05</totfact>
</mgrwt>
</event>
<event>
 4    1  0.1893769E-002  0.6549285E+02  0.7818608E-02  0.1376127E+00
         -1   -1    0    0  501    0 -0.00000000000E+00  0.00000000000E+00  0.10427580372E+02  0.10427581590E+02  0.50400000000E-02 0. -1.
          1   -1    0    0    0  501  0.00000000000E+00 -0.00000000000E+00 -0.10283577368E+03  0.10283577381E+03  0.50400000000E-02 0. -1.
          2    1    1    2    0  502  0.21202585672E+02 -0.24294069353E+02 -0.56074855435E+02  0.64684935367E+02  0.25500000000E-02 0.  1.
         -2    1    1    2  502    0 -0.21202585672E+02  0.24294069353E+02 -0.36333337878E+02  0.48578420031E+02  0.25500000000E-02 0.  1.
<mgrwt>
<rscale>  0 0.65492851E+02</rscale>
<asrwt>0</asrwt>
<pdfrwt beam="2">  1        1 0.15820888E-01 0.65492851E+02</pdfrwt>
<pdfrwt beam="1">  1       -1 0.16042433E-02 0.65492851E+02</pdfrwt>
<totfact> 0.25349943E+05</totfact>
</mgrwt>
</event>
<event>
 4    1  0.1893769E-002  0.6077560E+02  0.7818608E-02  0.1394605E+00
         -1   -1    0    0  501    0 -0.00000000000E+00  0.00000000000E+00  0.33526106203E+03  0.33526106207E+03  0.50400000000E-02 0. -1.
          1   -1    0    0    0  501  0.00000000000E+00 -0.00000000000E+00 -0.27543237314E+01  0.27543283426E+01  0.50400000000E-02 0. -1.
          2    1    1    2    0  502  0.16398917358E+02  0.25289875146E+02  0.18773332961E+03  0.19013759578E+03  0.25500000000E-02 0.  1.
         -2    1    1    2  502    0 -0.16398917358E+02 -0.25289875146E+02  0.14477340869E+03  0.14787779463E+03  0.25500000000E-02 0.  1.
<mgrwt>
<rscale>  0 0.60775597E+02</rscale>
<asrwt>0</asrwt>
<pdfrwt beam="2">  1        1 0.42374265E-03 0.60775597E+02</pdfrwt>
<pdfrwt beam="1">  1       -1 0.51578603E-01 0.60775597E+02</pdfrwt>
<totfact> 0.16444416E+05</totfact>
</mgrwt>
</event>
<event>
 4    1  0.1893769E-002  0.4447033E+02  0.7818608E-02  0.1477676E+00
          1   -1    0    0    0  501  0.00000000000E+00  0.00000000000E+00  0.22327010494E+02  0.22327011063E+02  0.50400000000E-02 0. -1.
         -1   -1    0    0  501    0 -0.00000000000E+00 -0.00000000000E+00 -0.22143701031E+02  0.22143701604E+02  0.50400000000E-02 0. -1.
          2    1    1    2    0  502  0.17631822150E+02 -0.13305091815E+02 -0.24571006522E+01  0.22224850296E+02  0.25500000000E-02 0. -1.
         -2    1    1    2  502    0 -0.17631822150E+02  0.13305091815E+02  0.26404101155E+01  0.22245862371E+02  0.25500000000E-02 0. -1.
<mgrwt>
<rscale>  0 0.44470335E+02</rscale>
<asrwt>0</asrwt>
<pdfrwt beam="1">  1        1 0.34349248E-02 0.44470335E+02</pdfrwt>
<pdfrwt beam="2">  1       -1 0.34067233E-02 0.44470335E+02</pdfrwt>
<totfact> 0.58621450E+05</totfact>
</mgrwt>
</event>
<event>
 4    1  0.1893769E-002  0.4950811E+02  0.7818608E-02  0.1448013E+00
          1   -1    0    0    0  501  0.00000000000E+00  0.00000000000E+00  0.38213433960E+03  0.38213433963E+03  0.50400000000E-02 0. -1.
         -1   -1    0    0  501    0 -0.00000000000E+00 -0.00000000000E+00 -0.16035240750E+01  0.16035319956E+01  0.50400000000E-02 0. -1.
          2    1    1    2    0  502  0.12922554078E+02  0.19645591043E+02  0.13031571891E+03  0.13242027130E+03  0.25500000000E-02 0.  1.
         -2    1    1    2  502    0 -0.12922554078E+02 -0.19645591043E+02  0.25021509662E+03  0.25131760032E+03  0.25500000000E-02 0.  1.
<mgrwt>
<rscale>  0 0.49508106E+02</rscale>
<asrwt>0</asrwt>
<pdfrwt beam="1">  1        1 0.58789924E-01 0.49508106E+02</pdfrwt>
<pdfrwt beam="2">  1       -1 0.24669652E-03 0.49508106E+02</pdfrwt>
<totfact> 0.64400203E+05</totfact>
</mgrwt>
</event>
<event>
 4    1  0.1893769E-002  0.1344326E+03  0.7818608E-02  0.1221023E+00
          1   -1    0    0    0  501  0.00000000000E+00  0.00000000000E+00  0.51011393187E+01  0.51011418085E+01  0.50400000000E-02 0. -1.
         -1   -1    0    0  501    0 -0.00000000000E+00 -0.00000000000E+00 -0.88569026221E+03  0.88569026222E+03  0.50400000000E-02 0. -1.
          2    1    1    2    0  502  0.11024266949E+02  0.65677930548E+02 -0.37996042100E+03  0.38575257168E+03  0.25500000000E-02 0. -1.
         -2    1    1    2  502    0 -0.11024266949E+02 -0.65677930548E+02 -0.50062870188E+03  0.50503883235E+03  0.25500000000E-02 0. -1.
<mgrwt>
<rscale>  0 0.13443259E+03</rscale>
<asrwt>0</asrwt>
<pdfrwt beam="1">  1        1 0.78479156E-03 0.13443259E+03</pdfrwt>
<pdfrwt beam="2">  1       -1 0.13625992E+00 0.13443259E+03</pdfrwt>
<totfact> 0.10444159E+04</totfact>
</mgrwt>
</event>
<event>
 4    1  0.1893769E-002  0.5369202E+02  0.7818608E-02  0.1426388E+00
          1   -1    0    0    0  501  0.00000000000E+00  0.00000000000E+00  0.56463138758E+01  0.56463161252E+01  0.50400000000E-02 0.  1.
         -1   -1    0    0  501    0 -0.00000000000E+00 -0.00000000000E+00 -0.12764221428E+03  0.12764221438E+03  0.50400000000E-02 0.  1.
          2    1    1    2    0  502 -0.24366186498E+02  0.86322872723E+01 -0.43014087100E+02  0.50184052483E+02  0.25500000000E-02 0. -1.
         -2    1    1    2  502    0  0.24366186498E+02 -0.86322872723E+01 -0.78981813307E+02  0.83104478024E+02  0.25500000000E-02 0. -1.
<mgrwt>
<rscale>  0 0.53692017E+02</rscale>
<asrwt>0</asrwt>
<pdfrwt beam="1">  1        1 0.86866395E-03 0.53692017E+02</pdfrwt>
<pdfrwt beam="2">  1       -1 0.19637262E-01 0.53692017E+02</pdfrwt>
<totfact> 0.29836892E+05</totfact>
</mgrwt>
</event>
<event>
 4    1  0.1893769E-002  0.4464431E+02  0.7818608E-02  0.1476574E+00
          1   -1    0    0    0  501  0.00000000000E+00  0.00000000000E+00  0.11890700677E+04  0.11890700677E+04  0.50400000000E-02 0.  1.
         -1   -1    0    0  501    0 -0.00000000000E+00 -0.00000000000E+00 -0.41903374624E+00  0.41906405488E+00  0.50400000000E-02 0.  1.
          2    1    1    2    0  502  0.19892186763E+02 -0.69550945418E+01  0.79048910087E+03  0.79076993559E+03  0.25500000000E-02 0.  1.
         -2    1    1    2  502    0 -0.19892186763E+02  0.69550945418E+01  0.39816193304E+03  0.39871919613E+03  0.25500000000E-02 0.  1.
<mgrwt>
<rscale>  0 0.44644306E+02</rscale>
<asrwt>0</asrwt>
<pdfrwt beam="1">  1        1 0.18292905E+00 0.44644306E+02</pdfrwt>
<pdfrwt beam="2">  1       -1 0.64470757E-04 0.44644306E+02</pdfrwt>
<totfact> 0.79006465E+05</totfact>
</mgrwt>
</event>
<event>
 4    1  0.1893769E-002  0.8809276E+02  0.7818608E-02  0.1307537E+00
          1   -1    0    0    0  501  0.00000000000E+00  0.00000000000E+00  0.12327415046E+03  0.12327415056E+03  0.50400000000E-02 0.  1.
         -1   -1    0    0  501    0 -0.00000000000E+00 -0.00000000000E+00 -0.15737959861E+02  0.15737960668E+02  0.50400000000E-02 0.  1.
          2    1    1    2    0  502  0.10713060413E+02 -0.35905650472E+02  0.90305241355E+02  0.97770251212E+02  0.25500000000E-02 0. -1.
         -2    1    1    2  502    0 -0.10713060413E+02  0.35905650472E+02  0.17230949239E+02  0.41241860014E+02  0.25500000000E-02 0. -1.
<mgrwt>
<rscale>  0 0.88092762E+02</rscale>
<asrwt>0</asrwt>
<pdfrwt beam="1">  1        1 0.18965253E-01 0.88092762E+02</pdfrwt>
<pdfrwt beam="2">  1       -1 0.24212248E-02 0.88092762E+02</pdfrwt>
<totfact> 0.11879556E+05</totfact>
</mgrwt>
</event>
<event>
 4    1  0.1893769E-002  0.5268501E+02  0.7818608E-02  0.1431375E+00
          1   -1    0    0    0  501  0.00000000000E+00  0.00000000000E+00  0.16187015885E+04  0.16187015885E+04  0.50400000000E-02 0.  1.
         -1   -1    0    0  501    0 -0.00000000000E+00 -0.00000000000E+00 -0.42867908450E+00  0.42870871123E+00  0.50400000000E-02 0.  1.
          2    1    1    2    0  502  0.22728292486E+02 -0.11136888261E+02  0.58472360319E+03  0.58527113177E+03  0.25500000000E-02 0. -1.
         -2    1    1    2  502    0 -0.22728292486E+02  0.11136888261E+02  0.10335493062E+04  0.10338591654E+04  0.25500000000E-02 0. -1.
<mgrwt>
<rscale>  0 0.52685008E+02</rscale>
<asrwt>0</asrwt>
<pdfrwt beam="1">  1        1 0.24903134E+00 0.52685008E+02</pdfrwt>
<pdfrwt beam="2">  1       -1 0.65952822E-04 0.52685008E+02</pdfrwt>
<totfact> 0.42505293E+05</totfact>
</mgrwt>
</event>
<event>
 4    1  0.1893769E-002  0.4186146E+02  0.7818608E-02  0.1494943E+00
          1   -1    0    0    0  501  0.00000000000E+00  0.00000000000E+00  0.54975186221E+03  0.54975186223E+03  0.50400000000E-02 0. -1.
         -1   -1    0    0  501    0 -0.00000000000E+00 -0.00000000000E+00 -0.79688862604E+00  0.79690456387E+00  0.50400000000E-02 0. -1.
          2    1    1    2    0  502  0.19249388855E+02 -0.75982532425E+01  0.23325797413E+03  0.23417419782E+03  0.25500000000E-02 0.  1.
         -2    1    1    2  502    0 -0.19249388855E+02  0.75982532425E+01  0.31569699945E+03  0.31637456897E+03  0.25500000000E-02 0.  1.
<mgrwt>
<rscale>  0 0.41861457E+02</rscale>
<asrwt>0</asrwt>
<pdfrwt beam="1">  1        1 0.84577073E-01 0.41861457E+02</pdfrwt>
<pdfrwt beam="2">  1       -1 0.12259968E-03 0.41861457E+02</pdfrwt>
<totfact> 0.10170347E+06</totfact>
</mgrwt>
</event>
<event>
 4    1  0.1893769E-002  0.5397474E+02  0.7818608E-02  0.1425011E+00
          1   -1    0    0    0  501  0.00000000000E+00  0.00000000000E+00  0.97638916824E+03  0.97638916825E+03  0.50400000000E-02 0.  1.
         -1   -1    0    0  501    0 -0.00000000000E+00 -0.00000000000E+00 -0.74592162026E+00  0.74593864706E+00  0.50400000000E-02 0.  1.
          2    1    1    2    0  502 -0.20226948900E+02  0.17306962946E+02  0.40755588516E+03  0.40842436260E+03  0.25500000000E-02 0.  1.
         -2    1    1    2  502    0  0.20226948900E+02 -0.17306962946E+02  0.56808736145E+03  0.56871074430E+03  0.25500000000E-02 0.  1.
<mgrwt>
<rscale>  0 0.53974739E+02</rscale>
<asrwt>0</asrwt>
<pdfrwt beam="1">  1        1 0.15021268E+00 0.53974739E+02</pdfrwt>
<pdfrwt beam="2">  1       -1 0.11475928E-03 0.53974739E+02</pdfrwt>
<totfact> 0.52766233E+05</totfact>
</mgrwt>
</event>
<event>
 4    1  0.1893769E-002  0.8976615E+02  0.7818608E-02  0.1303419E+00
          1   -1    0    0    0  501  0.00000000000E+00  0.00000000000E+00  0.12490377459E+03  0.12490377469E+03  0.50400000000E-02 0. -1.
         -1   -1    0    0  501    0 -0.00000000000E+00 -0.00000000000E+00 -0.16128338072E+02  0.16128338859E+02  0.50400000000E-02 0. -1.
          2    1    1    2    0  502  0.44797731033E+02  0.24336122235E+01  0.56454892896E+02  0.72110429984E+02  0.25500000000E-02 0. -1.
         -2    1    1    2  502    0 -0.44797731033E+02 -0.24336122235E+01  0.52320543620E+02  0.68921683564E+02  0.25500000000E-02 0. -1.
<mgrwt>
<rscale>  0 0.89766149E+02</rscale>
<asrwt>0</asrwt>
<pdfrwt beam="1">  1        1 0.19215966E-01 0.89766149E+02</pdfrwt>
<pdfrwt beam="2">  1       -1 0.24812828E-02 0.89766149E+02</pdfrwt>
<totfact> 0.11317045E+05</totfact>
</mgrwt>
</event>
<event>
 4    1  0.1893769E-002  0.4930217E+02  0.7818608E-02  0.1449142E+00
          1   -1    0    0    0  501  0.00000000000E+00  0.00000000000E+00  0.45004927971E+03  0.45004927974E+03  0.50400000000E-02 0.  1.
         -1   -1    0    0  501    0 -0.00000000000E+00 -0.00000000000E+00 -0.13502382913E+01  0.13502476976E+01  0.50400000000E-02 0.  1.
          2    1    1    2    0  502  0.14316268179E+02 -0.19470572228E+02  0.17985473910E+03  0.18147117099E+03  0.25500000000E-02 0. -1.
         -2    1    1    2  502    0 -0.14316268179E+02  0.19470572228E+02  0.26884430232E+03  0.26992835645E+03  0.25500000000E-02 0. -1.
<mgrwt>
<rscale>  0 0.49302166E+02</rscale>
<asrwt>0</asrwt>
<pdfrwt beam="1">  1        1 0.69238351E-01 0.49302166E+02</pdfrwt>
<pdfrwt beam="2">  1       -1 0.20772969E-03 0.49302166E+02</pdfrwt>
<totfact> 0.66628815E+05</totfact>
</mgrwt>
</event>
<event>
 4    1  0.1893769E-002  0.9843084E+02  0.7818608E-02  0.1283631E+00
          1   -1    0    0    0  501  0.00000000000E+00  0.00000000000E+00  0.80230971353E+03  0.80230971355E+03  0.50400000000E-02 0.  1.
         -1   -1    0    0  501    0 -0.00000000000E+00 -0.00000000000E+00 -0.30189787122E+01  0.30189829192E+01  0.50400000000E-02 0.  1.
          2    1    1    2    0  502 -0.28060581776E+02  0.15927602601E+02  0.70369905323E+03  0.70443838786E+03  0.25500000000E-02 0.  1.
         -2    1    1    2  502    0  0.28060581776E+02 -0.15927602601E+02  0.95591681592E+02  0.10089030860E+03  0.25500000000E-02 0.  1.
<mgrwt>
<rscale>  0 0.98430842E+02</rscale>
<asrwt>0</asrwt>
<pdfrwt beam="1">  1        1 0.12343250E+00 0.98430842E+02</pdfrwt>
<pdfrwt beam="2">  1       -1 0.46445768E-03 0.98430842E+02</pdfrwt>
<totfact> 0.11529284E+05</totfact>
</mgrwt>
</event>
<event>
 4    1  0.1893769E-002  0.1938439E+03  0.7818608E-02  0.1155039E+00
         -1   -1    0    0  501    0 -0.00000000000E+00  0.00000000000E+00  0.68225704308E+01  0.68225722924E+01  0.50400000000E-02 0. -1.
          1   -1    0    0    0  501  0.00000000000E+00 -0.00000000000E+00 -0.13768796889E+04  0.13768796890E+04  0.50400000000E-02 0. -1.
          2    1    1    2    0  502 -0.59288490894E+02  0.76631597740E+02 -0.70299226354E+03  0.70963768892E+03  0.25500000000E-02 0.  1.
         -2    1    1    2  502    0  0.59288490894E+02 -0.76631597740E+02 -0.66706485497E+03  0.67406457233E+03  0.25500000000E-02 0.  1.
<mgrwt>
<rscale>  0 0.19384385E+03</rscale>
<asrwt>0</asrwt>
<pdfrwt beam="2">  1        1 0.21182742E+00 0.19384385E+03</pdfrwt>
<pdfrwt beam="1">  1       -1 0.10496275E-02 0.19384385E+03</pdfrwt>
<totfact> 0.14939842E+04</totfact>
</mgrwt>
</event>
<event>
 4    1  0.1893769E-002  0.4716709E+02  0.7818608E-02  0.1461249E+00
         -1   -1    0    0  501    0 -0.00000000000E+00  0.00000000000E+00  0.76186413037E+00  0.76188080088E+00  0.50400000000E-02 0. -1.
          1   -1    0    0    0  501  0.00000000000E+00 -0.00000000000E+00 -0.73002194192E+03  0.73002194193E+03  0.50400000000E-02 0. -1.
          2    1    1    2    0  502  0.12436206497E+02  0.19806334530E+02 -0.31755040386E+03  0.31841044128E+03  0.25500000000E-02 0. -1.
         -2    1    1    2  502    0 -0.12436206497E+02 -0.19806334530E+02 -0.41170967392E+03  0.41237338145E+03  0.25500000000E-02 0. -1.
<mgrwt>
<rscale>  0 0.47167091E+02</rscale>
<asrwt>0</asrwt>
<pdfrwt beam="2">  1        1 0.11231051E+00 0.47167091E+02</pdfrwt>
<pdfrwt beam="1">  1       -1 0.11721173E-03 0.47167091E+02</pdfrwt>
<totfact> 0.76565263E+05</totfact>
</mgrwt>
</event>
<event>
 4    1  0.1893769E-002  0.1003149E+03  0.7818608E-02  0.1279635E+00
          1   -1    0    0    0  501  0.00000000000E+00  0.00000000000E+00  0.14423569188E+02  0.14423570068E+02  0.50400000000E-02 0.  1.
         -1   -1    0    0  501    0 -0.00000000000E+00 -0.00000000000E+00 -0.17442057290E+03  0.17442057297E+03  0.50400000000E-02 0.  1.
          2    1    1    2    0  502  0.32732018635E+00 -0.49225447668E+02 -0.61891547001E+02  0.79081068742E+02  0.25500000000E-02 0. -1.
         -2    1    1    2  502    0 -0.32732018635E+00  0.49225447668E+02 -0.98105456709E+02  0.10976307430E+03  0.25500000000E-02 0. -1.
<mgrwt>
<rscale>  0 0.10031485E+03</rscale>
<asrwt>0</asrwt>
<pdfrwt beam="1">  1        1 0.22190108E-02 0.10031485E+03</pdfrwt>
<pdfrwt beam="2">  1       -1 0.26833933E-01 0.10031485E+03</pdfrwt>
<totfact> 0.56167146E+04</totfact>
</mgrwt>
</event>
<event>
 4    1  0.1893769E-002  0.5183741E+02  0.7818608E-02  0.1435676E+00
         -1   -1    0    0  501    0 -0.00000000000E+00  0.00000000000E+00  0.11854346752E+01  0.11854453892E+01  0.50400000000E-02 0. -1.
          1   -1    0    0    0  501  0.00000000000E+00 -0.00000000000E+00 -0.56669199540E+03  0.56669199542E+03  0.50400000000E-02 0. -1.
          2    1    1    2    0  502 -0.18623169001E+02 -0.17749309379E+02 -0.31725531536E+03  0.31829670991E+03  0.25500000000E-02 0. -1.
         -2    1    1    2  502    0  0.18623169001E+02  0.17749309379E+02 -0.24825124536E+03  0.24958073090E+03  0.25500000000E-02 0. -1.
<mgrwt>
<rscale>  0 0.51837415E+02</rscale>
<asrwt>0</asrwt>
<pdfrwt beam="2">  1        1 0.87183168E-01 0.51837415E+02</pdfrwt>
<pdfrwt beam="1">  1       -1 0.18237584E-03 0.51837415E+02</pdfrwt>
<totfact> 0.60247632E+05</totfact>
</mgrwt>
</event>
<event>
 4    1  0.1893769E-002  0.5987852E+02  0.7818608E-02  0.1398342E+00
          1   -1    0    0    0  501  0.00000000000E+00  0.00000000000E+00  0.26030773899E+02  0.26030774387E+02  0.50400000000E-02 0. -1.
         -1   -1    0    0  501    0 -0.00000000000E+00 -0.00000000000E+00 -0.34434594545E+02  0.34434594914E+02  0.50400000000E-02 0. -1.
          2    1    1    2    0  502 -0.18713202263E+02  0.21161456662E+02 -0.14217177781E+02  0.31624663438E+02  0.25500000000E-02 0.  1.
         -2    1    1    2  502    0  0.18713202263E+02 -0.21161456662E+02  0.58133571352E+01  0.28840705863E+02  0.25500000000E-02 0.  1.
<mgrwt>
<rscale>  0 0.59878516E+02</rscale>
<asrwt>0</asrwt>
<pdfrwt beam="1">  1        1 0.40047345E-02 0.59878516E+02</pdfrwt>
<pdfrwt beam="2">  1       -1 0.52976300E-02 0.59878516E+02</pdfrwt>
<totfact> 0.27281779E+05</totfact>
</mgrwt>
</event>
<event>
 4    1  0.1893769E-002  0.4815659E+02  0.7818608E-02  0.1455546E+00
         -1   -1    0    0  501    0 -0.00000000000E+00  0.00000000000E+00  0.31012304533E+03  0.31012304537E+03  0.50400000000E-02 0. -1.
          1   -1    0    0    0  501  0.00000000000E+00 -0.00000000000E+00 -0.18694615417E+01  0.18694683355E+01  0.50400000000E-02 0. -1.
          2    1    1    2    0  502 -0.13918954604E+02  0.15658542844E+02  0.77240887620E+02  0.80031756123E+02  0.25500000000E-02 0.  1.
         -2    1    1    2  502    0  0.13918954604E+02 -0.15658542844E+02  0.23101269617E+03  0.23196075758E+03  0.25500000000E-02 0.  1.
<mgrwt>
<rscale>  0 0.48156585E+02</rscale>
<asrwt>0</asrwt>
<pdfrwt beam="2">  1        1 0.28761000E-03 0.48156585E+02</pdfrwt>
<pdfrwt beam="1">  1       -1 0.47711237E-01 0.48156585E+02</pdfrwt>
<totfact> 0.30379534E+05</totfact>
</mgrwt>
</event>
<event>
 4    1  0.1893769E-002  0.4497449E+02  0.7818608E-02  0.1474501E+00
         -1   -1    0    0  501    0 -0.00000000000E+00  0.00000000000E+00  0.96210619644E+02  0.96210619776E+02  0.50400000000E-02 0. -1.
          1   -1    0    0    0  501  0.00000000000E+00 -0.00000000000E+00 -0.52559265905E+01  0.52559290070E+01  0.50400000000E-02 0. -1.
          2    1    1    2    0  502  0.19204542277E+02 -0.56357291618E+01  0.68606430674E+02  0.71466203366E+02  0.25500000000E-02 0.  1.
         -2    1    1    2  502    0 -0.19204542277E+02  0.56357291618E+01  0.22348262380E+02  0.30000345417E+02  0.25500000000E-02 0.  1.
<mgrwt>
<rscale>  0 0.44974485E+02</rscale>
<asrwt>0</asrwt>
<pdfrwt beam="2">  1        1 0.80860435E-03 0.44974485E+02</pdfrwt>
<pdfrwt beam="1">  1       -1 0.14801633E-01 0.44974485E+02</pdfrwt>
<totfact> 0.48606012E+05</totfact>
</mgrwt>
</event>
<event>
 4    1  0.1893769E-002  0.6042093E+02  0.7818608E-02  0.1396074E+00
         -1   -1    0    0  501    0 -0.00000000000E+00  0.00000000000E+00  0.36642469037E+02  0.36642469384E+02  0.50400000000E-02 0. -1.
          1   -1    0    0    0  501  0.00000000000E+00 -0.00000000000E+00 -0.24907500554E+02  0.24907501064E+02  0.50400000000E-02 0. -1.
          2    1    1    2    0  502  0.13133281902E+02 -0.16815962536E+02 -0.15919368219E+02  0.26621156633E+02  0.25500000000E-02 0.  1.
         -2    1    1    2  502    0 -0.13133281902E+02  0.16815962536E+02  0.27654336702E+02  0.34928813814E+02  0.25500000000E-02 0.  1.
<mgrwt>
<rscale>  0 0.60420935E+02</rscale>
<asrwt>0</asrwt>
<pdfrwt beam="2">  1        1 0.38319232E-02 0.60420935E+02</pdfrwt>
<pdfrwt beam="1">  1       -1 0.56373030E-02 0.60420935E+02</pdfrwt>
<totfact> 0.26503675E+05</totfact>
</mgrwt>
</event>
<event>
 4    1  0.1893769E-002  0.4020176E+02  0.7818608E-02  0.1506732E+00
          1   -1    0    0    0  501  0.00000000000E+00  0.00000000000E+00  0.12393386957E+02  0.12393387982E+02  0.50400000000E-02 0. -1.
         -1   -1    0    0  501    0 -0.00000000000E+00 -0.00000000000E+00 -0.32601691908E+02  0.32601692298E+02  0.50400000000E-02 0. -1.
          2    1    1    2    0  502 -0.30448372575E+01 -0.19862660159E+02 -0.10662766868E+02  0.22748426457E+02  0.25500000000E-02 0. -1.
         -2    1    1    2  502    0  0.30448372575E+01  0.19862660159E+02 -0.95455380831E+01  0.22246653823E+02  0.25500000000E-02 0. -1.
<mgrwt>
<rscale>  0 0.40201762E+02</rscale>
<asrwt>0</asrwt>
<pdfrwt beam="1">  1        1 0.19066750E-02 0.40201762E+02</pdfrwt>
<pdfrwt beam="2">  1       -1 0.50156450E-02 0.40201762E+02</pdfrwt>
<totfact> 0.72356166E+05</totfact>
</mgrwt>
</event>
<event>
 4    1  0.1893769E-002  0.1022660E+03  0.7818608E-02  0.1275602E+00
         -1   -1    0    0  501    0 -0.00000000000E+00  0.00000000000E+00  0.15649262644E+01  0.15649343803E+01  0.50400000000E-02 0.  1.
          1   -1    0    0    0  501  0.00000000000E+00 -0.00000000000E+00 -0.16707362497E+04  0.16707362497E+04  0.50400000000E-02 0.  1.
          2    1    1    2    0  502 -0.92954038838E+01 -0.46847992155E+02 -0.53598112192E+03  0.53810491724E+03  0.25500000000E-02 0. -1.
         -2    1    1    2  502    0  0.92954038838E+01  0.46847992155E+02 -0.11331902015E+04  0.11341962668E+04  0.25500000000E-02 0. -1.
<mgrwt>
<rscale>  0 0.10226604E+03</rscale>
<asrwt>0</asrwt>
<pdfrwt beam="2">  1        1 0.25703492E+00 0.10226604E+03</pdfrwt>
<pdfrwt beam="1">  1       -1 0.24075985E-03 0.10226604E+03</pdfrwt>
<totfact> 0.73669106E+04</totfact>
</mgrwt>
</event>
<event>
 4    1  0.1893769E-002  0.7300118E+02  0.7818608E-02  0.1350175E+00
         -1   -1    0    0  501    0 -0.00000000000E+00  0.00000000000E+00  0.33151342755E+01  0.33151381066E+01  0.50400000000E-02 0. -1.
          1   -1    0    0    0  501  0.00000000000E+00 -0.00000000000E+00 -0.40188180461E+03  0.40188180464E+03  0.50400000000E-02 0. -1.
          2    1    1    2    0  502 -0.26119593948E+02 -0.16832975293E+02 -0.92991946789E+02  0.98046338123E+02  0.25500000000E-02 0. -1.
         -2    1    1    2  502    0  0.26119593948E+02  0.16832975293E+02 -0.30557472354E+03  0.30715060462E+03  0.25500000000E-02 0. -1.
<mgrwt>
<rscale>  0 0.73001176E+02</rscale>
<asrwt>0</asrwt>
<pdfrwt beam="2">  1        1 0.61827932E-01 0.73001176E+02</pdfrwt>
<pdfrwt beam="1">  1       -1 0.51002127E-03 0.73001176E+02</pdfrwt>
<totfact> 0.24197614E+05</totfact>
</mgrwt>
</event>
<event>
 4    1  0.1893769E-002  0.4297901E+02  0.7818608E-02  0.1487368E+00
         -1   -1    0    0  501    0 -0.00000000000E+00  0.00000000000E+00  0.54004883507E+00  0.54007235244E+00  0.50400000000E-02 0.  1.
          1   -1    0    0    0  501  0.00000000000E+00 -0.00000000000E+00 -0.85508714948E+03  0.85508714949E+03  0.50400000000E-02 0.  1.
          2    1    1    2    0  502  0.21396812871E+02 -0.17543471529E+01 -0.40841291818E+03  0.40897678794E+03  0.25500000000E-02 0. -1.
         -2    1    1    2  502    0 -0.21396812871E+02  0.17543471529E+01 -0.44613418247E+03  0.44665043390E+03  0.25500000000E-02 0. -1.
<mgrwt>
<rscale>  0 0.42979013E+02</rscale>
<asrwt>0</asrwt>
<pdfrwt beam="2">  1        1 0.13155079E+00 0.42979013E+02</pdfrwt>
<pdfrwt beam="1">  1       -1 0.83086930E-04 0.42979013E+02</pdfrwt>
<totfact> 0.94909799E+05</totfact>
</mgrwt>
</event>
<event>
 4    1  0.1893769E-002  0.5443881E+02  0.7818608E-02  0.1422772E+00
          1   -1    0    0    0  501  0.00000000000E+00  0.00000000000E+00  0.25269508854E+04  0.25269508854E+04  0.50400000000E-02 0.  1.
         -1   -1    0    0  501    0 -0.00000000000E+00 -0.00000000000E+00 -0.29317594399E+00  0.29321926222E+00  0.50400000000E-02 0.  1.
          2    1    1    2    0  502  0.25517090536E+02 -0.10054574035E+01  0.82595300140E+03  0.82634768311E+03  0.25500000000E-02 0. -1.
         -2    1    1    2  502    0 -0.25517090536E+02  0.10054574035E+01  0.17007047080E+04  0.17008964215E+04  0.25500000000E-02 0. -1.
<mgrwt>
<rscale>  0 0.54438808E+02</rscale>
<asrwt>0</asrwt>
<pdfrwt beam="1">  1        1 0.38875250E+00 0.54438808E+02</pdfrwt>
<pdfrwt beam="2">  1       -1 0.45108389E-04 0.54438808E+02</pdfrwt>
<totfact> 0.19576644E+05</totfact>
</mgrwt>
</event>
<event>
 4    1  0.1893769E-002  0.6413225E+02  0.7818608E-02  0.1381266E+00
          1   -1    0    0    0  501  0.00000000000E+00  0.00000000000E+00  0.45148037205E+01  0.45148065336E+01  0.50400000000E-02 0.  1.
         -1   -1    0    0  501    0 -0.00000000000E+00 -0.00000000000E+00 -0.22774766502E+03  0.22774766507E+03  0.50400000000E-02 0.  1.
          2    1    1    2    0  502  0.24377311524E+02 -0.20143093293E+02 -0.13086177782E+03  0.13462838640E+03  0.25500000000E-02 0. -1.
         -2    1    1    2  502    0 -0.24377311524E+02  0.20143093293E+02 -0.92371083479E+02  0.97634085206E+02  0.25500000000E-02 0. -1.
<mgrwt>
<rscale>  0 0.64132249E+02</rscale>
<asrwt>0</asrwt>
<pdfrwt beam="1">  1        1 0.69458559E-03 0.64132249E+02</pdfrwt>
<pdfrwt beam="2">  1       -1 0.35038094E-01 0.64132249E+02</pdfrwt>
<totfact> 0.16524826E+05</totfact>
</mgrwt>
</event>
<event>
 4    1  0.1893769E-002  0.5387062E+02  0.7818608E-02  0.1425517E+00
          1   -1    0    0    0  501  0.00000000000E+00  0.00000000000E+00  0.87291871638E+02  0.87291871783E+02  0.50400000000E-02 0. -1.
         -1   -1    0    0  501    0 -0.00000000000E+00 -0.00000000000E+00 -0.83113219880E+01  0.83113235161E+01  0.50400000000E-02 0. -1.
          2    1    1    2    0  502 -0.76946667178E+01 -0.25602974920E+02  0.33660586444E+02  0.42985524388E+02  0.25500000000E-02 0.  1.
         -2    1    1    2  502    0  0.76946667178E+01  0.25602974920E+02  0.45319963205E+02  0.52617670911E+02  0.25500000000E-02 0.  1.
<mgrwt>
<rscale>  0 0.53870620E+02</rscale>
<asrwt>0</asrwt>
<pdfrwt beam="1">  1        1 0.13429519E-01 0.53870620E+02</pdfrwt>
<pdfrwt beam="2">  1       -1 0.12786651E-02 0.53870620E+02</pdfrwt>
<totfact> 0.41044536E+05</totfact>
</mgrwt>
</event>
<event>
 4    1  0.1893769E-002  0.4056895E+02  0.7818608E-02  0.1504066E+00
          1   -1    0    0    0  501  0.00000000000E+00  0.00000000000E+00  0.55007105870E+01  0.55007128959E+01  0.50400000000E-02 0.  1.
         -1   -1    0    0  501    0 -0.00000000000E+00 -0.00000000000E+00 -0.74801212858E+02  0.74801213028E+02  0.50400000000E-02 0.  1.
          2    1    1    2    0  502 -0.20245101484E+02  0.42130867304E+00 -0.37007543233E+02  0.42185304287E+02  0.25500000000E-02 0.  1.
         -2    1    1    2  502    0  0.20245101484E+02 -0.42130867304E+00 -0.32292959038E+02  0.38116621637E+02  0.25500000000E-02 0.  1.
<mgrwt>
<rscale>  0 0.40568950E+02</rscale>
<asrwt>0</asrwt>
<pdfrwt beam="1">  1        1 0.84626341E-03 0.40568950E+02</pdfrwt>
<pdfrwt beam="2">  1       -1 0.11507878E-01 0.40568950E+02</pdfrwt>
<totfact> 0.64817680E+05</totfact>
</mgrwt>
</event>
<event>
 4    1  0.1893769E-002  0.4193092E+02  0.7818608E-02  0.1494464E+00
         -1   -1    0    0  501    0 -0.00000000000E+00  0.00000000000E+00  0.24211824241E+02  0.24211824766E+02  0.50400000000E-02 0.  1.
          1   -1    0    0    0  501  0.00000000000E+00 -0.00000000000E+00 -0.18154369507E+02  0.18154370207E+02  0.50400000000E-02 0.  1.
          2    1    1    2    0  502 -0.15165978704E+02  0.14447778613E+02  0.21220794295E+01  0.21053466330E+02  0.25500000000E-02 0. -1.
         -2    1    1    2  502    0  0.15165978704E+02 -0.14447778613E+02  0.39353753042E+01  0.21312728643E+02  0.25500000000E-02 0. -1.
<mgrwt>
<rscale>  0 0.41930916E+02</rscale>
<asrwt>0</asrwt>
<pdfrwt beam="2">  1        1 0.27929800E-02 0.41930916E+02</pdfrwt>
<pdfrwt beam="1">  1       -1 0.37248961E-02 0.41930916E+02</pdfrwt>
<totfact> 0.67016195E+05</totfact>
</mgrwt>
</event>
<event>
 4    1  0.1893769E-002  0.4716544E+02  0.7818608E-02  0.1461259E+00
         -1   -1    0    0  501    0 -0.00000000000E+00  0.00000000000E+00  0.66826127329E+01  0.66826146334E+01  0.50400000000E-02 0. -1.
          1   -1    0    0    0  501  0.00000000000E+00 -0.00000000000E+00 -0.83222611218E+02  0.83222611371E+02  0.50400000000E-02 0. -1.
          2    1    1    2    0  502  0.14743967718E+02  0.17148527441E+02 -0.25527444776E+02  0.34104354865E+02  0.25500000000E-02 0.  1.
         -2    1    1    2  502    0 -0.14743967718E+02 -0.17148527441E+02 -0.51012553709E+02  0.55800871139E+02  0.25500000000E-02 0.  1.
<mgrwt>
<rscale>  0 0.47165435E+02</rscale>
<asrwt>0</asrwt>
<pdfrwt beam="2">  1        1 0.12803478E-01 0.47165435E+02</pdfrwt>
<pdfrwt beam="1">  1       -1 0.10280945E-02 0.47165435E+02</pdfrwt>
<totfact> 0.57130410E+05</totfact>
</mgrwt>
</event>
<event>
 4    1  0.1893769E-002  0.5914131E+02  0.7818608E-02  0.1401471E+00
         -1   -1    0    0  501    0 -0.00000000000E+00  0.00000000000E+00  0.11401353357E+01  0.11401464754E+01  0.50400000000E-02 0.  1.
          1   -1    0    0    0  501  0.00000000000E+00 -0.00000000000E+00 -0.76694353972E+03  0.76694353973E+03  0.50400000000E-02 0.  1.
          2    1    1    2    0  502  0.82648522851E-01  0.29452444651E+02 -0.41718999410E+03  0.41822834016E+03  0.25500000000E-02 0.  1.
         -2    1    1    2  502    0 -0.82648522851E-01 -0.29452444651E+02 -0.34861341028E+03  0.34985534605E+03  0.25500000000E-02 0.  1.
<mgrwt>
<rscale>  0 0.59141313E+02</rscale>
<asrwt>0</asrwt>
<pdfrwt beam="2">  1        1 0.11799090E+00 0.59141313E+02</pdfrwt>
<pdfrwt beam="1">  1       -1 0.17540691E-03 0.59141313E+02</pdfrwt>
<totfact> 0.43432464E+05</totfact>
</mgrwt>
</event>
<event>
 4    1  0.1893769E-002  0.7454180E+02  0.7818608E-02  0.1345296E+00
          1   -1    0    0    0  501  0.00000000000E+00  0.00000000000E+00  0.14333115180E+04  0.14333115180E+04  0.50400000000E-02 0. -1.
         -1   -1    0    0  501    0 -0.00000000000E+00 -0.00000000000E+00 -0.96916177089E+00  0.96917487574E+00  0.50400000000E-02 0. -1.
          2    1    1    2    0  502  0.25534326597E+02  0.49169246861E+01  0.12299324905E+04  0.12302073440E+04  0.25500000000E-02 0.  1.
         -2    1    1    2  502    0 -0.25534326597E+02 -0.49169246861E+01  0.20240986577E+03  0.20407334895E+03  0.25500000000E-02 0.  1.
<mgrwt>
<rscale>  0 0.74541804E+02</rscale>
<asrwt>0</asrwt>
<pdfrwt beam="1">  1        1 0.22050940E+00 0.74541804E+02</pdfrwt>
<pdfrwt beam="2">  1       -1 0.14910286E-03 0.74541804E+02</pdfrwt>
<totfact> 0.19413474E+05</totfact>
</mgrwt>
</event>
<event>
 4    1  0.1893769E-002  0.5593141E+02  0.7818608E-02  0.1415745E+00
         -1   -1    0    0  501    0 -0.00000000000E+00  0.00000000000E+00  0.37796290718E+01  0.37796324321E+01  0.50400000000E-02 0. -1.
          1   -1    0    0    0  501  0.00000000000E+00 -0.00000000000E+00 -0.20691983480E+03  0.20691983487E+03  0.50400000000E-02 0. -1.
          2    1    1    2    0  502  0.93410456146E+01  0.24501765569E+02 -0.64951805194E+02  0.70045190082E+02  0.25500000000E-02 0. -1.
         -2    1    1    2  502    0 -0.93410456146E+01 -0.24501765569E+02 -0.13818840054E+03  0.14065427722E+03  0.25500000000E-02 0. -1.
<mgrwt>
<rscale>  0 0.55931407E+02</rscale>
<asrwt>0</asrwt>
<pdfrwt beam="2">  1        1 0.31833812E-01 0.55931407E+02</pdfrwt>
<pdfrwt beam="1">  1       -1 0.58148182E-03 0.55931407E+02</pdfrwt>
<totfact> 0.42625006E+05</totfact>
</mgrwt>
</event>
<event>
 4    1  0.1893769E-002  0.5205433E+02  0.7818608E-02  0.1434566E+00
         -1   -1    0    0  501    0 -0.00000000000E+00  0.00000000000E+00  0.37536301442E+03  0.37536301446E+03  0.50400000000E-02 0.  1.
          1   -1    0    0    0  501  0.00000000000E+00 -0.00000000000E+00 -0.18046846116E+01  0.18046916493E+01  0.50400000000E-02 0.  1.
          2    1    1    2    0  502  0.97255815956E+01 -0.19769316427E+02  0.86380319704E+02  0.89145793215E+02  0.25500000000E-02 0. -1.
         -2    1    1    2  502    0 -0.97255815956E+01  0.19769316427E+02  0.28717801011E+03  0.28802191289E+03  0.25500000000E-02 0. -1.
<mgrwt>
<rscale>  0 0.52054325E+02</rscale>
<asrwt>0</asrwt>
<pdfrwt beam="2">  1        1 0.27764401E-03 0.52054325E+02</pdfrwt>
<pdfrwt beam="1">  1       -1 0.57748224E-01 0.52054325E+02</pdfrwt>
<totfact> 0.23053651E+05</totfact>
</mgrwt>
</event>
<event>
 4    1  0.1893769E-002  0.4747950E+02  0.7818608E-02  0.1459431E+00
          1   -1    0    0    0  501  0.00000000000E+00  0.00000000000E+00  0.79616302819E+03  0.79616302820E+03  0.50400000000E-02 0. -1.
         -1   -1    0    0  501    0 -0.00000000000E+00 -0.00000000000E+00 -0.70785563336E+00  0.70787357577E+00  0.50400000000E-02 0. -1.
          2    1    1    2    0  502 -0.11171443704E+02 -0.19718780076E+02  0.51633842006E+03  0.51683555942E+03  0.25500000000E-02 0.  1.
         -2    1    1    2  502    0  0.11171443704E+02  0.19718780076E+02  0.27911675249E+03  0.28003534236E+03  0.25500000000E-02 0.  1.
<mgrwt>
<rscale>  0 0.47479496E+02</rscale>
<asrwt>0</asrwt>
<pdfrwt beam="1">  1        1 0.12248636E+00 0.47479496E+02</pdfrwt>
<pdfrwt beam="2">  1       -1 0.10890248E-03 0.47479496E+02</pdfrwt>
<totfact> 0.74941687E+05</totfact>
</mgrwt>
</event>
<event>
 4    1  0.1893769E-002  0.1003996E+03  0.7818608E-02  0.1279458E+00
         -1   -1    0    0  501    0 -0.00000000000E+00  0.00000000000E+00  0.10667796849E+01  0.10667915906E+01  0.50400000000E-02 0. -1.
          1   -1    0    0    0  501  0.00000000000E+00 -0.00000000000E+00 -0.23622539633E+04  0.23622539633E+04  0.50400000000E-02 0. -1.
          2    1    1    2    0  502  0.23567812245E+02  0.40327021169E+02 -0.74763430550E+03  0.74909196043E+03  0.25500000000E-02 0. -1.
         -2    1    1    2  502    0 -0.23567812245E+02 -0.40327021169E+02 -0.16135528782E+04  0.16142287945E+04  0.25500000000E-02 0. -1.
<mgrwt>
<rscale>  0 0.10039957E+03</rscale>
<asrwt>0</asrwt>
<pdfrwt beam="2">  1        1 0.36341950E+00 0.10039957E+03</pdfrwt>
<pdfrwt beam="1">  1       -1 0.16412276E-03 0.10039957E+03</pdfrwt>
<totfact> 0.45808501E+04</totfact>
</mgrwt>
</event>
<event>
 4    1  0.1893769E-002  0.4463570E+02  0.7818608E-02  0.1476629E+00
         -1   -1    0    0  501    0 -0.00000000000E+00  0.00000000000E+00  0.33217199200E+01  0.33217237435E+01  0.50400000000E-02 0.  1.
          1   -1    0    0    0  501  0.00000000000E+00 -0.00000000000E+00 -0.14994828838E+03  0.14994828846E+03  0.50400000000E-02 0.  1.
          2    1    1    2    0  502 -0.34981892310E+00 -0.20841200819E+02 -0.10069951910E+03  0.10283419265E+03  0.25500000000E-02 0.  1.
         -2    1    1    2  502    0  0.34981892310E+00  0.20841200819E+02 -0.45927049353E+02  0.50435819550E+02  0.25500000000E-02 0.  1.
<mgrwt>
<rscale>  0 0.44635704E+02</rscale>
<asrwt>0</asrwt>
<pdfrwt beam="2">  1        1 0.23068962E-01 0.44635704E+02</pdfrwt>
<pdfrwt beam="1">  1       -1 0.51103425E-03 0.44635704E+02</pdfrwt>
<totfact> 0.71110046E+05</totfact>
</mgrwt>
</event>
<event>
 4    1  0.1893769E-002  0.4911378E+02  0.7818608E-02  0.1450181E+00
         -1   -1    0    0  501    0 -0.00000000000E+00  0.00000000000E+00  0.71748555636E+01  0.71748573338E+01  0.50400000000E-02 0. -1.
          1   -1    0    0    0  501  0.00000000000E+00 -0.00000000000E+00 -0.84049185569E+02  0.84049185721E+02  0.50400000000E-02 0. -1.
          2    1    1    2    0  502  0.21804663767E+02  0.13013706409E+01 -0.17595827843E+02  0.28049065787E+02  0.25500000000E-02 0.  1.
         -2    1    1    2  502    0 -0.21804663767E+02 -0.13013706409E+01 -0.59278502163E+02  0.63174977268E+02  0.25500000000E-02 0.  1.
<mgrwt>
<rscale>  0 0.49113780E+02</rscale>
<asrwt>0</asrwt>
<pdfrwt beam="2">  1        1 0.12930643E-01 0.49113780E+02</pdfrwt>
<pdfrwt beam="1">  1       -1 0.11038241E-02 0.49113780E+02</pdfrwt>
<totfact> 0.51656659E+05</totfact>
</mgrwt>
</event>
<event>
 4    1  0.1893769E-002  0.1130023E+03  0.7818608E-02  0.1255109E+00
         -1   -1    0    0  501    0 -0.00000000000E+00  0.00000000000E+00  0.25629324970E+03  0.25629324975E+03  0.50400000000E-02 0.  1.
          1   -1    0    0    0  501  0.00000000000E+00 -0.00000000000E+00 -0.12455974137E+02  0.12455975157E+02  0.50400000000E-02 0.  1.
          2    1    1    2    0  502 -0.23248350939E+02 -0.16946121515E+02  0.62674393172E+01  0.29443805085E+02  0.25500000000E-02 0.  1.
         -2    1    1    2  502    0  0.23248350939E+02  0.16946121515E+02  0.23756983625E+03  0.23930541982E+03  0.25500000000E-02 0.  1.
<mgrwt>
<rscale>  0 0.11300234E+03</rscale>
<asrwt>0</asrwt>
<pdfrwt beam="2">  1        1 0.19163038E-02 0.11300234E+03</pdfrwt>
<pdfrwt beam="1">  1       -1 0.39429730E-01 0.11300234E+03</pdfrwt>
<totfact> 0.36522830E+04</totfact>
</mgrwt>
</event>
<event>
 4    1  0.1893769E-002  0.4753469E+02  0.7818608E-02  0.1459111E+00
         -1   -1    0    0  501    0 -0.00000000000E+00  0.00000000000E+00  0.19688330366E+02  0.19688331011E+02  0.50400000000E-02 0.  1.
          1   -1    0    0    0  501  0.00000000000E+00 -0.00000000000E+00 -0.28691443588E+02  0.28691444030E+02  0.50400000000E-02 0.  1.
          2    1    1    2    0  502 -0.22381832972E+02  0.64395455719E+01 -0.93263460258E+01  0.25087744638E+02  0.25500000000E-02 0.  1.
         -2    1    1    2  502    0  0.22381832972E+02 -0.64395455719E+01  0.32323280398E+00  0.23292030403E+02  0.25500000000E-02 0.  1.
<mgrwt>
<rscale>  0 0.47534688E+02</rscale>
<asrwt>0</asrwt>
<pdfrwt beam="2">  1        1 0.44140683E-02 0.47534688E+02</pdfrwt>
<pdfrwt beam="1">  1       -1 0.30289740E-02 0.47534688E+02</pdfrwt>
<totfact> 0.50449430E+05</totfact>
</mgrwt>
</event>
<event>
 4    1  0.1893769E-002  0.2141970E+03  0.7818608E-02  0.1138285E+00
         -1   -1    0    0  501    0 -0.00000000000E+00  0.00000000000E+00  0.64753009737E+03  0.64753009739E+03  0.50400000000E-02 0. -1.
          1   -1    0    0    0  501  0.00000000000E+00 -0.00000000000E+00 -0.17713599936E+02  0.17713600653E+02  0.50400000000E-02 0. -1.
          2    1    1    2    0  502 -0.28116690577E+02  0.96964173264E+02  0.20390232571E+03  0.22752748762E+03  0.25500000000E-02 0.  1.
         -2    1    1    2  502    0  0.28116690577E+02 -0.96964173264E+02  0.42591417172E+03  0.43771621042E+03  0.25500000000E-02 0.  1.
<mgrwt>
<rscale>  0 0.21419701E+03</rscale>
<asrwt>0</asrwt>
<pdfrwt beam="2">  1        1 0.27251700E-02 0.21419701E+03</pdfrwt>
<pdfrwt beam="1">  1       -1 0.99619988E-01 0.21419701E+03</pdfrwt>
<totfact> 0.39122654E+03</totfact>
</mgrwt>
</event>
<event>
 4    1  0.1893769E-002  0.6283248E+02  0.7818608E-02  0.1386315E+00
         -1   -1    0    0  501    0 -0.00000000000E+00  0.00000000000E+00  0.14054482647E+03  0.14054482656E+03  0.50400000000E-02 0. -1.
          1   -1    0    0    0  501  0.00000000000E+00 -0.00000000000E+00 -0.70225285705E+01  0.70225303790E+01  0.50400000000E-02 0. -1.
          2    1    1    2    0  502  0.62524021912E+01  0.21618806459E+02  0.15278664418E+02  0.27201156570E+02  0.25500000000E-02 0. -1.
         -2    1    1    2  502    0 -0.62524021912E+01 -0.21618806459E+02  0.11824363348E+03  0.12036620037E+03  0.25500000000E-02 0. -1.
<mgrwt>
<rscale>  0 0.62832482E+02</rscale>
<asrwt>0</asrwt>
<pdfrwt beam="2">  1        1 0.10803892E-02 0.62832482E+02</pdfrwt>
<pdfrwt beam="1">  1       -1 0.21622280E-01 0.62832482E+02</pdfrwt>
<totfact> 0.19713038E+05</totfact>
</mgrwt>
</event>
<event>
 4    1  0.1893769E-002  0.1090926E+03  0.7818608E-02  0.1262260E+00
         -1   -1    0    0  501    0 -0.00000000000E+00  0.00000000000E+00  0.24457896655E+03  0.24457896660E+03  0.50400000000E-02 0. -1.
          1   -1    0    0    0  501  0.00000000000E+00 -0.00000000000E+00 -0.12164982614E+02  0.12164983658E+02  0.50400000000E-02 0. -1.
          2    1    1    2    0  502  0.33529953163E+02 -0.23495871935E+02  0.20102870210E+03  0.20515567951E+03  0.25500000000E-02 0.  1.
         -2    1    1    2  502    0 -0.33529953163E+02  0.23495871935E+02  0.31385281827E+02  0.51588270750E+02  0.25500000000E-02 0.  1.
<mgrwt>
<rscale>  0 0.10909260E+03</rscale>
<asrwt>0</asrwt>
<pdfrwt beam="2">  1        1 0.18715359E-02 0.10909260E+03</pdfrwt>
<pdfrwt beam="1">  1       -1 0.37627532E-01 0.10909260E+03</pdfrwt>
<totfact> 0.40737342E+04</totfact>
</mgrwt>
</event>
<event>
 4    1  0.1893769E-002  0.4693753E+02  0.7818608E-02  0.1462596E+00
          1   -1    0    0    0  501  0.00000000000E+00  0.00000000000E+00  0.18883057238E+04  0.18883057238E+04  0.50400000000E-02 0.  1.
         -1   -1    0    0  501    0 -0.00000000000E+00 -0.00000000000E+00 -0.29165923693E+00  0.29170278038E+00  0.50400000000E-02 0.  1.
          2    1    1    2    0  502 -0.46783902603E+01 -0.22272368015E+02  0.11745767668E+04  0.11747972279E+04  0.25500000000E-02 0. -1.
         -2    1    1    2  502    0  0.46783902603E+01  0.22272368015E+02  0.71343729773E+03  0.71380019859E+03  0.25500000000E-02 0. -1.
<mgrwt>
<rscale>  0 0.46937530E+02</rscale>
<asrwt>0</asrwt>
<pdfrwt beam="1">  1        1 0.29051350E+00 0.46937530E+02</pdfrwt>
<pdfrwt beam="2">  1       -1 0.44873241E-04 0.46937530E+02</pdfrwt>
<totfact> 0.47743754E+05</totfact>
</mgrwt>
</event>
<event>
 4    1  0.1893769E-002  0.6844444E+02  0.7818608E-02  0.1365464E+00
         -1   -1    0    0  501    0 -0.00000000000E+00  0.00000000000E+00  0.37239228741E+01  0.37239262846E+01  0.50400000000E-02 0.  1.
          1   -1    0    0    0  501  0.00000000000E+00 -0.00000000000E+00 -0.31449628573E+03  0.31449628577E+03  0.50400000000E-02 0.  1.
          2    1    1    2    0  502 -0.61086708056E+01  0.19533177728E+02 -0.28290813846E+03  0.28364744967E+03  0.25500000000E-02 0.  1.
         -2    1    1    2  502    0  0.61086708056E+01 -0.19533177728E+02 -0.27864224393E+02  0.34572762382E+02  0.25500000000E-02 0.  1.
<mgrwt>
<rscale>  0 0.68444443E+02</rscale>
<asrwt>0</asrwt>
<pdfrwt beam="2">  1        1 0.48384023E-01 0.68444443E+02</pdfrwt>
<pdfrwt beam="1">  1       -1 0.57291172E-03 0.68444443E+02</pdfrwt>
<totfact> 0.27424537E+05</totfact>
</mgrwt>
</event>
<event>
 4    1  0.1893769E-002  0.4952319E+02  0.7818608E-02  0.1447930E+00
          1   -1    0    0    0  501  0.00000000000E+00  0.00000000000E+00  0.12388298213E+01  0.12388400735E+01  0.50400000000E-02 0.  1.
         -1   -1    0    0  501    0 -0.00000000000E+00 -0.00000000000E+00 -0.49492996524E+03  0.49492996526E+03  0.50400000000E-02 0.  1.
          2    1    1    2    0  502 -0.18013324472E+02  0.16244859811E+02 -0.29670035088E+03  0.29769023086E+03  0.25500000000E-02 0. -1.
         -2    1    1    2  502    0  0.18013324472E+02 -0.16244859811E+02 -0.19699078453E+03  0.19847857448E+03  0.25500000000E-02 0. -1.
<mgrwt>
<rscale>  0 0.49523189E+02</rscale>
<asrwt>0</asrwt>
<pdfrwt beam="1">  1        1 0.19059039E-03 0.49523189E+02</pdfrwt>
<pdfrwt beam="2">  1       -1 0.76142915E-01 0.49523189E+02</pdfrwt>
<totfact> 0.22478872E+05</totfact>
</mgrwt>
</event>
<event>
 4    1  0.1893769E-002  0.4394654E+02  0.7818608E-02  0.1481027E+00
         -1   -1    0    0  501    0 -0.00000000000E+00  0.00000000000E+00  0.22050815625E+02  0.22050816201E+02  0.50400000000E-02 0. -1.
          1   -1    0    0    0  501  0.00000000000E+00 -0.00000000000E+00 -0.21895996950E+02  0.21895997530E+02  0.50400000000E-02 0. -1.
          2    1    1    2    0  502 -0.31187532661E+01  0.21750703526E+02  0.14730063257E+00  0.21973653083E+02  0.25500000000E-02 0. -1.
         -2    1    1    2  502    0  0.31187532661E+01 -0.21750703526E+02  0.75180423471E-02  0.21973160648E+02  0.25500000000E-02 0. -1.
<mgrwt>
<rscale>  0 0.43946541E+02</rscale>
<asrwt>0</asrwt>
<pdfrwt beam="2">  1        1 0.33686150E-02 0.43946541E+02</pdfrwt>
<pdfrwt beam="1">  1       -1 0.33924333E-02 0.43946541E+02</pdfrwt>
<totfact> 0.60333058E+05</totfact>
</mgrwt>
</event>
<event>
 4    1  0.1893769E-002  0.4575391E+02  0.7818608E-02  0.1469689E+00
          1   -1    0    0    0  501  0.00000000000E+00  0.00000000000E+00  0.25378928448E+03  0.25378928453E+03  0.50400000000E-02 0.  1.
         -1   -1    0    0  501    0 -0.00000000000E+00 -0.00000000000E+00 -0.20621602797E+01  0.20621664387E+01  0.50400000000E-02 0.  1.
          2    1    1    2    0  502 -0.39240622759E+01  0.21788945763E+02  0.15808309582E+03  0.15962588015E+03  0.25500000000E-02 0.  1.
         -2    1    1    2  502    0  0.39240622759E+01 -0.21788945763E+02  0.93644028381E+02  0.96225570822E+02  0.25500000000E-02 0.  1.
<mgrwt>
<rscale>  0 0.45753906E+02</rscale>
<asrwt>0</asrwt>
<pdfrwt beam="1">  1        1 0.39044475E-01 0.45753906E+02</pdfrwt>
<pdfrwt beam="2">  1       -1 0.31725615E-03 0.45753906E+02</pdfrwt>
<totfact> 0.73055871E+05</totfact>
</mgrwt>
</event>
<event>
 4    1  0.1893769E-002  0.8441607E+02  0.7818608E-02  0.1316967E+00
         -1   -1    0    0  501    0 -0.00000000000E+00  0.00000000000E+00  0.12055277064E+02  0.12055278118E+02  0.50400000000E-02 0. -1.
          1   -1    0    0    0  501  0.00000000000E+00 -0.00000000000E+00 -0.14777910290E+03  0.14777910299E+03  0.50400000000E-02 0. -1.
          2    1    1    2    0  502 -0.33616927722E+02 -0.11095583228E+02 -0.11138190525E+03  0.11687231760E+03  0.25500000000E-02 0.  1.
         -2    1    1    2  502    0  0.33616927722E+02  0.11095583228E+02 -0.24341920587E+02  0.42962063510E+02  0.25500000000E-02 0.  1.
<mgrwt>
<rscale>  0 0.84416068E+02</rscale>
<asrwt>0</asrwt>
<pdfrwt beam="2">  1        1 0.22735245E-01 0.84416068E+02</pdfrwt>
<pdfrwt beam="1">  1       -1 0.18546582E-02 0.84416068E+02</pdfrwt>
<totfact> 0.13752097E+05</totfact>
</mgrwt>
</event>
<event>
 4    1  0.1893769E-002  0.5482215E+02  0.7818608E-02  0.1420942E+00
          1   -1    0    0    0  501  0.00000000000E+00  0.00000000000E+00  0.39008383100E+03  0.39008383103E+03  0.50400000000E-02 0. -1.
         -1   -1    0    0  501    0 -0.00000000000E+00 -0.00000000000E+00 -0.19261648619E+01  0.19261714557E+01  0.50400000000E-02 0. -1.
          2    1    1    2    0  502 -0.14965527315E+01  0.25072567784E+02  0.11558721011E+03  0.11828472628E+03  0.25500000000E-02 0. -1.
         -2    1    1    2  502    0  0.14965527315E+01 -0.25072567784E+02  0.27257045603E+03  0.27372527620E+03  0.25500000000E-02 0. -1.
<mgrwt>
<rscale>  0 0.54822151E+02</rscale>
<asrwt>0</asrwt>
<pdfrwt beam="1">  1        1 0.60012869E-01 0.54822151E+02</pdfrwt>
<pdfrwt beam="2">  1       -1 0.29633371E-03 0.54822151E+02</pdfrwt>
<totfact> 0.50069053E+05</totfact>
</mgrwt>
</event>
<event>
 4    1  0.1893769E-002  0.6936116E+02  0.7818608E-02  0.1362279E+00
          1   -1    0    0    0  501  0.00000000000E+00  0.00000000000E+00  0.12532794053E+04  0.12532794053E+04  0.50400000000E-02 0. -1.
         -1   -1    0    0  501    0 -0.00000000000E+00 -0.00000000000E+00 -0.95966960394E+00  0.95968283840E+00  0.50400000000E-02 0. -1.
          2    1    1    2    0  502  0.26664312784E+01 -0.34436135727E+02  0.68272486455E+03  0.68359797980E+03  0.25500000000E-02 0.  1.
         -2    1    1    2  502    0 -0.26664312784E+01  0.34436135727E+02  0.56959487111E+03  0.57064110831E+03  0.25500000000E-02 0.  1.
<mgrwt>
<rscale>  0 0.69361155E+02</rscale>
<asrwt>0</asrwt>
<pdfrwt beam="1">  1        1 0.19281146E+00 0.69361155E+02</pdfrwt>
<pdfrwt beam="2">  1       -1 0.14764307E-03 0.69361155E+02</pdfrwt>
<totfact> 0.25434596E+05</totfact>
</mgrwt>
</event>
<event>
 4    1  0.1893769E-002  0.4562972E+02  0.7818608E-02  0.1470448E+00
          1   -1    0    0    0  501  0.00000000000E+00  0.00000000000E+00  0.33517068319E+03  0.33517068323E+03  0.50400000000E-02 0. -1.
         -1   -1    0    0  501    0 -0.00000000000E+00 -0.00000000000E+00 -0.15529889152E+01  0.15529970935E+01  0.50400000000E-02 0. -1.
          2    1    1    2    0  502 -0.16800488000E+02  0.15386298961E+02  0.17591627560E+03  0.17738526044E+03  0.25500000000E-02 0. -1.
         -2    1    1    2  502    0  0.16800488000E+02 -0.15386298961E+02  0.15770141867E+03  0.15933841988E+03  0.25500000000E-02 0. -1.
<mgrwt>
<rscale>  0 0.45629716E+02</rscale>
<asrwt>0</asrwt>
<pdfrwt beam="1">  1        1 0.51564790E-01 0.45629716E+02</pdfrwt>
<pdfrwt beam="2">  1       -1 0.23892168E-03 0.45629716E+02</pdfrwt>
<totfact> 0.77159749E+05</totfact>
</mgrwt>
</event>
<event>
 4    1  0.1893769E-002  0.5306707E+02  0.7818608E-02  0.1429467E+00
          1   -1    0    0    0  501  0.00000000000E+00  0.00000000000E+00  0.15631393465E+03  0.15631393473E+03  0.50400000000E-02 0. -1.
         -1   -1    0    0  501    0 -0.00000000000E+00 -0.00000000000E+00 -0.45039378150E+01  0.45039406350E+01  0.50400000000E-02 0. -1.
          2    1    1    2    0  502  0.10111948867E+02  0.24489152888E+02  0.80252789993E+02  0.84513196764E+02  0.25500000000E-02 0.  1.
         -2    1    1    2  502    0 -0.10111948867E+02 -0.24489152888E+02  0.71557206841E+02  0.76304678602E+02  0.25500000000E-02 0.  1.
<mgrwt>
<rscale>  0 0.53067070E+02</rscale>
<asrwt>0</asrwt>
<pdfrwt beam="1">  1        1 0.24048294E-01 0.53067070E+02</pdfrwt>
<pdfrwt beam="2">  1       -1 0.69291384E-03 0.53067070E+02</pdfrwt>
<totfact> 0.46424296E+05</totfact>
</mgrwt>
</event>
<event>
 4    1  0.1893769E-002  0.7005598E+02  0.7818608E-02  0.1359903E+00
          1   -1    0    0    0  501  0.00000000000E+00  0.00000000000E+00  0.11316652429E+03  0.11316652440E+03  0.50400000000E-02 0.  1.
         -1   -1    0    0  501    0 -0.00000000000E+00 -0.00000000000E+00 -0.10842076612E+02  0.10842077784E+02  0.50400000000E-02 0.  1.
          2    1    1    2    0  502 -0.17833159136E+02  0.30110423330E+02  0.53847375392E+02  0.64219926822E+02  0.25500000000E-02 0.  1.
         -2    1    1    2  502    0  0.17833159136E+02 -0.30110423330E+02  0.48477072284E+02  0.59788675362E+02  0.25500000000E-02 0.  1.
<mgrwt>
<rscale>  0 0.70055983E+02</rscale>
<asrwt>0</asrwt>
<pdfrwt beam="1">  1        1 0.17410236E-01 0.70055983E+02</pdfrwt>
<pdfrwt beam="2">  1       -1 0.16680117E-02 0.70055983E+02</pdfrwt>
<totfact> 0.21559250E+05</totfact>
</mgrwt>
</event>
<event>
 4    1  0.1893769E-002  0.4992738E+02  0.7818608E-02  0.1445734E+00
          1   -1    0    0    0  501  0.00000000000E+00  0.00000000000E+00  0.13511705879E+02  0.13511706819E+02  0.50400000000E-02 0.  1.
         -1   -1    0    0  501    0 -0.00000000000E+00 -0.00000000000E+00 -0.46121919352E+02  0.46121919628E+02  0.50400000000E-02 0.  1.
          2    1    1    2    0  502 -0.78633348826E+01  0.23690402323E+02 -0.16716511864E+02  0.30041787116E+02  0.25500000000E-02 0.  1.
         -2    1    1    2  502    0  0.78633348826E+01 -0.23690402323E+02 -0.15893701609E+02  0.29591839331E+02  0.25500000000E-02 0.  1.
<mgrwt>
<rscale>  0 0.49927381E+02</rscale>
<asrwt>0</asrwt>
<pdfrwt beam="1">  1        1 0.20787241E-02 0.49927381E+02</pdfrwt>
<pdfrwt beam="2">  1       -1 0.70956799E-02 0.49927381E+02</pdfrwt>
<totfact> 0.41376568E+05</totfact>
</mgrwt>
</event>
<event>
 4    1  0.1893769E-002  0.1775142E+03  0.7818608E-02  0.1170231E+00
         -1   -1    0    0  501    0 -0.00000000000E+00  0.00000000000E+00  0.11865381923E+03  0.11865381933E+03  0.50400000000E-02 0. -1.
          1   -1    0    0    0  501  0.00000000000E+00 -0.00000000000E+00 -0.66393312651E+02  0.66393312843E+02  0.50400000000E-02 0. -1.
          2    1    1    2    0  502  0.52375146451E+02 -0.34887311753E+02  0.91376574965E+02  0.11095025438E+03  0.25500000000E-02 0. -1.
         -2    1    1    2  502    0 -0.52375146451E+02  0.34887311753E+02 -0.39116068389E+02  0.74096877801E+02  0.25500000000E-02 0. -1.
<mgrwt>
<rscale>  0 0.17751417E+03</rscale>
<asrwt>0</asrwt>
<pdfrwt beam="2">  1        1 0.10214356E-01 0.17751417E+03</pdfrwt>
<pdfrwt beam="1">  1       -1 0.18254434E-01 0.17751417E+03</pdfrwt>
<totfact> 0.13940265E+04</totfact>
</mgrwt>
</event>
<event>
 4    1  0.1893769E-002  0.5529972E+02  0.7818608E-02  0.1418687E+00
         -1   -1    0    0  501    0 -0.00000000000E+00  0.00000000000E+00  0.16706597684E+03  0.16706597691E+03  0.50400000000E-02 0.  1.
          1   -1    0    0    0  501  0.00000000000E+00 -0.00000000000E+00 -0.45761238959E+01  0.45761266714E+01  0.50400000000E-02 0.  1.
          2    1    1    2    0  502  0.45844889340E+01  0.26808374915E+02  0.96704579575E+02  0.10045636974E+03  0.25500000000E-02 0. -1.
         -2    1    1    2  502    0 -0.45844889340E+01 -0.26808374915E+02  0.65785273366E+02  0.71185733842E+02  0.25500000000E-02 0. -1.
<mgrwt>
<rscale>  0 0.55299723E+02</rscale>
<asrwt>0</asrwt>
<pdfrwt beam="2">  1        1 0.70401933E-03 0.55299723E+02</pdfrwt>
<pdfrwt beam="1">  1       -1 0.25702456E-01 0.55299723E+02</pdfrwt>
<totfact> 0.26132490E+05</totfact>
</mgrwt>
</event>
<event>
 4    1  0.1893769E-002  0.4196645E+02  0.7818608E-02  0.1494220E+00
          1   -1    0    0    0  501  0.00000000000E+00  0.00000000000E+00  0.27260351887E+02  0.27260352353E+02  0.50400000000E-02 0. -1.
         -1   -1    0    0  501    0 -0.00000000000E+00 -0.00000000000E+00 -0.16151504669E+02  0.16151505455E+02  0.50400000000E-02 0. -1.
          2    1    1    2    0  502  0.17951123489E+02 -0.10783332211E+02  0.69316825524E+01  0.22058361625E+02  0.25500000000E-02 0. -1.
         -2    1    1    2  502    0 -0.17951123489E+02  0.10783332211E+02  0.41771646654E+01  0.21353496183E+02  0.25500000000E-02 0. -1.
<mgrwt>
<rscale>  0 0.41966450E+02</rscale>
<asrwt>0</asrwt>
<pdfrwt beam="1">  1        1 0.41939003E-02 0.41966450E+02</pdfrwt>
<pdfrwt beam="2">  1       -1 0.24848470E-02 0.41966450E+02</pdfrwt>
<totfact> 0.69003683E+05</totfact>
</mgrwt>
</event>
<event>
 4    1  0.1893769E-002  0.7308439E+02  0.7818608E-02  0.1349908E+00
         -1   -1    0    0  501    0 -0.00000000000E+00  0.00000000000E+00  0.73243602925E+00  0.73245336954E+00  0.50400000000E-02 0.  1.
          1   -1    0    0    0  501  0.00000000000E+00 -0.00000000000E+00 -0.18231163410E+04  0.18231163410E+04  0.50400000000E-02 0.  1.
          2    1    1    2    0  502  0.33633394561E+02 -0.13555322324E+02 -0.10238508222E+04  0.10244927809E+04  0.25500000000E-02 0.  1.
         -2    1    1    2  502    0 -0.33633394561E+02  0.13555322324E+02 -0.79853308278E+03  0.79935601348E+03  0.25500000000E-02 0.  1.
<mgrwt>
<rscale>  0 0.73084387E+02</rscale>
<asrwt>0</asrwt>
<pdfrwt beam="2">  1        1 0.28047581E+00 0.73084387E+02</pdfrwt>
<pdfrwt beam="1">  1       -1 0.11268526E-03 0.73084387E+02</pdfrwt>
<totfact> 0.16185097E+05</totfact>
</mgrwt>
</event>
<event>
 4    1  0.1893769E-002  0.6991958E+02  0.7818608E-02  0.1360367E+00
          1   -1    0    0    0  501  0.00000000000E+00  0.00000000000E+00  0.66330143275E+03  0.66330143277E+03  0.50400000000E-02 0.  1.
         -1   -1    0    0  501    0 -0.00000000000E+00 -0.00000000000E+00 -0.18425780702E+01  0.18425849631E+01  0.50400000000E-02 0.  1.
          2    1    1    2    0  502 -0.28619960444E+02  0.80820713784E+01  0.15589612509E+03  0.15870735281E+03  0.25500000000E-02 0. -1.
         -2    1    1    2  502    0  0.28619960444E+02 -0.80820713784E+01  0.50556272960E+03  0.50643666492E+03  0.25500000000E-02 0. -1.
<mgrwt>
<rscale>  0 0.69919582E+02</rscale>
<asrwt>0</asrwt>
<pdfrwt beam="1">  1        1 0.10204625E+00 0.69919582E+02</pdfrwt>
<pdfrwt beam="2">  1       -1 0.28347442E-03 0.69919582E+02</pdfrwt>
<totfact> 0.28424691E+05</totfact>
</mgrwt>
</event>
<event>
 4    1  0.1893769E-002  0.5208260E+02  0.7818608E-02  0.1434422E+00
          1   -1    0    0    0  501  0.00000000000E+00  0.00000000000E+00  0.15640202126E+04  0.15640202126E+04  0.50400000000E-02 0.  1.
         -1   -1    0    0  501    0 -0.00000000000E+00 -0.00000000000E+00 -0.43357907889E+00  0.43360837082E+00  0.50400000000E-02 0.  1.
          2    1    1    2    0  502 -0.60543387965E+01 -0.24579319220E+02  0.96537254565E+03  0.96570438016E+03  0.25500000000E-02 0.  1.
         -2    1    1    2  502    0  0.60543387965E+01  0.24579319220E+02  0.59821408785E+03  0.59874944081E+03  0.25500000000E-02 0.  1.
<mgrwt>
<rscale>  0 0.52082602E+02</rscale>
<asrwt>0</asrwt>
<pdfrwt beam="1">  1        1 0.24061494E+00 0.52082602E+02</pdfrwt>
<pdfrwt beam="2">  1       -1 0.66707713E-04 0.52082602E+02</pdfrwt>
<totfact> 0.45146663E+05</totfact>
</mgrwt>
</event>
<event>
 4    1  0.1893769E-002  0.5079038E+02  0.7818608E-02  0.1441124E+00
         -1   -1    0    0  501    0 -0.00000000000E+00  0.00000000000E+00  0.14036540657E+03  0.14036540666E+03  0.50400000000E-02 0.  1.
          1   -1    0    0    0  501  0.00000000000E+00 -0.00000000000E+00 -0.45945471141E+01  0.45945498785E+01  0.50400000000E-02 0.  1.
          2    1    1    2    0  502 -0.19174783288E+02  0.76866323028E+01  0.11004082802E+03  0.11196312101E+03  0.25500000000E-02 0. -1.
         -2    1    1    2  502    0  0.19174783288E+02 -0.76866323028E+01  0.25730031444E+02  0.32996835529E+02  0.25500000000E-02 0. -1.
<mgrwt>
<rscale>  0 0.50790380E+02</rscale>
<asrwt>0</asrwt>
<pdfrwt beam="2">  1        1 0.70685358E-03 0.50790380E+02</pdfrwt>
<pdfrwt beam="1">  1       -1 0.21594679E-01 0.50790380E+02</pdfrwt>
<totfact> 0.33598786E+05</totfact>
</mgrwt>
</event>
<event>
 4    1  0.1893769E-002  0.5659398E+02  0.7818608E-02  0.1412708E+00
         -1   -1    0    0  501    0 -0.00000000000E+00  0.00000000000E+00  0.15175690460E+01  0.15175774151E+01  0.50400000000E-02 0.  1.
          1   -1    0    0    0  501  0.00000000000E+00 -0.00000000000E+00 -0.52763164130E+03  0.52763164133E+03  0.50400000000E-02 0.  1.
          2    1    1    2    0  502 -0.24219704682E+02 -0.14632549582E+02 -0.26416564337E+03  0.26567685775E+03  0.25500000000E-02 0. -1.
         -2    1    1    2  502    0  0.24219704682E+02  0.14632549582E+02 -0.26194842889E+03  0.26347236099E+03  0.25500000000E-02 0. -1.
<mgrwt>
<rscale>  0 0.56593981E+02</rscale>
<asrwt>0</asrwt>
<pdfrwt beam="2">  1        1 0.81173953E-01 0.56593981E+02</pdfrwt>
<pdfrwt beam="1">  1       -1 0.23347323E-03 0.56593981E+02</pdfrwt>
<totfact> 0.48061304E+05</totfact>
</mgrwt>
</event>
<event>
 4    1  0.1893769E-002  0.6255326E+02  0.7818608E-02  0.1387419E+00
         -1   -1    0    0  501    0 -0.00000000000E+00  0.00000000000E+00  0.40066469283E+01  0.40066500982E+01  0.50400000000E-02 0.  1.
          1   -1    0    0    0  501  0.00000000000E+00 -0.00000000000E+00 -0.24415110655E+03  0.24415110660E+03  0.50400000000E-02 0.  1.
          2    1    1    2    0  502  0.25395042001E+02 -0.16160968592E+02 -0.15376787768E+03  0.15668645531E+03  0.25500000000E-02 0.  1.
         -2    1    1    2  502    0 -0.25395042001E+02  0.16160968592E+02 -0.86376581942E+02  0.91471301393E+02  0.25500000000E-02 0.  1.
<mgrwt>
<rscale>  0 0.62553263E+02</rscale>
<asrwt>0</asrwt>
<pdfrwt beam="2">  1        1 0.37561697E-01 0.62553263E+02</pdfrwt>
<pdfrwt beam="1">  1       -1 0.61640766E-03 0.62553263E+02</pdfrwt>
<totfact> 0.33013503E+05</totfact>
</mgrwt>
</event>
<event>
 4    1  0.1893769E-002  0.5452271E+02  0.7818608E-02  0.1422370E+00
         -1   -1    0    0  501    0 -0.00000000000E+00  0.00000000000E+00  0.14949755645E+01  0.14949840602E+01  0.50400000000E-02 0. -1.
          1   -1    0    0    0  501  0.00000000000E+00 -0.00000000000E+00 -0.49711814483E+03  0.49711814486E+03  0.50400000000E-02 0. -1.
          2    1    1    2    0  502  0.71061910960E+01 -0.22252765722E+02 -0.11929248960E+03  0.12155814089E+03  0.25500000000E-02 0.  1.
         -2    1    1    2  502    0 -0.71061910960E+01  0.22252765722E+02 -0.37633067966E+03  0.37705498803E+03  0.25500000000E-02 0.  1.
<mgrwt>
<rscale>  0 0.54522715E+02</rscale>
<asrwt>0</asrwt>
<pdfrwt beam="2">  1        1 0.76479583E-01 0.54522715E+02</pdfrwt>
<pdfrwt beam="1">  1       -1 0.22999729E-03 0.54522715E+02</pdfrwt>
<totfact> 0.52460771E+05</totfact>
</mgrwt>
</event>
<event>
 4    1  0.1893769E-002  0.6788141E+02  0.7818608E-02  0.1367449E+00
         -1   -1    0    0  501    0 -0.00000000000E+00  0.00000000000E+00  0.82888003256E+01  0.82888018579E+01  0.50400000000E-02 0. -1.
          1   -1    0    0    0  501  0.00000000000E+00 -0.00000000000E+00 -0.13897927573E+03  0.13897927582E+03  0.50400000000E-02 0. -1.
          2    1    1    2    0  502  0.52040154074E+01 -0.30158298370E+02 -0.33507136506E+02  0.45379873736E+02  0.25500000000E-02 0.  1.
         -2    1    1    2  502    0 -0.52040154074E+01  0.30158298370E+02 -0.97183338895E+02  0.10188820394E+03  0.25500000000E-02 0.  1.
<mgrwt>
<rscale>  0 0.67881414E+02</rscale>
<asrwt>0</asrwt>
<pdfrwt beam="2">  1        1 0.21381425E-01 0.67881414E+02</pdfrwt>
<pdfrwt beam="1">  1       -1 0.12752003E-02 0.67881414E+02</pdfrwt>
<totfact> 0.24198159E+05</totfact>
</mgrwt>
</event>
<event>
 4    1  0.1893769E-002  0.6176007E+02  0.7818608E-02  0.1390591E+00
         -1   -1    0    0  501    0 -0.00000000000E+00  0.00000000000E+00  0.89504469436E+02  0.89504469578E+02  0.50400000000E-02 0. -1.
          1   -1    0    0    0  501  0.00000000000E+00 -0.00000000000E+00 -0.10653953484E+02  0.10653954676E+02  0.50400000000E-02 0. -1.
          2    1    1    2    0  502 -0.89941971014E+01 -0.28243233547E+02  0.53469954098E+02  0.61136010832E+02  0.25500000000E-02 0.  1.
         -2    1    1    2  502    0  0.89941971014E+01  0.28243233547E+02  0.25380561854E+02  0.39022413421E+02  0.25500000000E-02 0.  1.
<mgrwt>
<rscale>  0 0.61760069E+02</rscale>
<asrwt>0</asrwt>
<pdfrwt beam="2">  1        1 0.16390698E-02 0.61760069E+02</pdfrwt>
<pdfrwt beam="1">  1       -1 0.13769919E-01 0.61760069E+02</pdfrwt>
<totfact> 0.22373129E+05</totfact>
</mgrwt>
</event>
<event>
 4    1  0.1893769E-002  0.7249740E+02  0.7818608E-02  0.1351801E+00
          1   -1    0    0    0  501  0.00000000000E+00  0.00000000000E+00  0.34593213793E+03  0.34593213797E+03  0.50400000000E-02 0.  1.
         -1   -1    0    0  501    0 -0.00000000000E+00 -0.00000000000E+00 -0.37983392175E+01  0.37983425613E+01  0.50400000000E-02 0.  1.
          2    1    1    2    0  502  0.30683139512E+02  0.13580822364E+02  0.23722391555E+03  0.23958522472E+03  0.25500000000E-02 0. -1.
         -2    1    1    2  502    0 -0.30683139512E+02 -0.13580822364E+02  0.10490988316E+03  0.11014525581E+03  0.25500000000E-02 0. -1.
<mgrwt>
<rscale>  0 0.72497398E+02</rscale>
<asrwt>0</asrwt>
<pdfrwt beam="1">  1        1 0.53220336E-01 0.72497398E+02</pdfrwt>
<pdfrwt beam="2">  1       -1 0.58436007E-03 0.72497398E+02</pdfrwt>
<totfact> 0.24029830E+05</totfact>
</mgrwt>
</event>
<event>
 4    1  0.1893769E-002  0.4303434E+02  0.7818608E-02  0.1487000E+00
         -1   -1    0    0  501    0 -0.00000000000E+00  0.00000000000E+00  0.15942686449E+01  0.15942766115E+01  0.50400000000E-02 0.  1.
          1   -1    0    0    0  501  0.00000000000E+00 -0.00000000000E+00 -0.29040734885E+03  0.29040734889E+03  0.50400000000E-02 0.  1.
          2    1    1    2    0  502 -0.21497377064E+02  0.72089399985E+00 -0.14049932385E+03  0.14213626180E+03  0.25500000000E-02 0. -1.
         -2    1    1    2  502    0  0.21497377064E+02 -0.72089399985E+00 -0.14831375635E+03  0.14986536370E+03  0.25500000000E-02 0. -1.
<mgrwt>
<rscale>  0 0.43034335E+02</rscale>
<asrwt>0</asrwt>
<pdfrwt beam="2">  1        1 0.44678012E-01 0.43034335E+02</pdfrwt>
<pdfrwt beam="1">  1       -1 0.24527295E-03 0.43034335E+02</pdfrwt>
<totfact> 0.86962417E+05</totfact>
</mgrwt>
</event>
<event>
 4    1  0.1893769E-002  0.5083725E+02  0.7818608E-02  0.1440877E+00
         -1   -1    0    0  501    0 -0.00000000000E+00  0.00000000000E+00  0.43406465429E+02  0.43406465722E+02  0.50400000000E-02 0.  1.
          1   -1    0    0    0  501  0.00000000000E+00 -0.00000000000E+00 -0.14885029641E+02  0.14885030494E+02  0.50400000000E-02 0.  1.
          2    1    1    2    0  502 -0.16635619885E+02 -0.18705571967E+02  0.92019785472E+01  0.26670558435E+02  0.25500000000E-02 0. -1.
         -2    1    1    2  502    0  0.16635619885E+02  0.18705571967E+02  0.19319457241E+02  0.31620937781E+02  0.25500000000E-02 0. -1.
<mgrwt>
<rscale>  0 0.50837252E+02</rscale>
<asrwt>0</asrwt>
<pdfrwt beam="2">  1        1 0.22900047E-02 0.50837252E+02</pdfrwt>
<pdfrwt beam="1">  1       -1 0.66779177E-02 0.50837252E+02</pdfrwt>
<totfact> 0.39838608E+05</totfact>
</mgrwt>
</event>
<event>
 4    1  0.1893769E-002  0.1088828E+03  0.7818608E-02  0.1262653E+00
          1   -1    0    0    0  501  0.00000000000E+00  0.00000000000E+00  0.14503464323E+02  0.14503465199E+02  0.50400000000E-02 0.  1.
         -1   -1    0    0  501    0 -0.00000000000E+00 -0.00000000000E+00 -0.20435556758E+03  0.20435556764E+03  0.50400000000E-02 0.  1.
          2    1    1    2    0  502  0.48217263050E+02  0.17313126305E+02 -0.13194660210E+03  0.14154347251E+03  0.25500000000E-02 0. -1.
         -2    1    1    2  502    0 -0.48217263050E+02 -0.17313126305E+02 -0.57905501162E+02  0.77315560334E+02  0.25500000000E-02 0. -1.
<mgrwt>
<rscale>  0 0.10888276E+03</rscale>
<asrwt>0</asrwt>
<pdfrwt beam="1">  1        1 0.22313024E-02 0.10888276E+03</pdfrwt>
<pdfrwt beam="2">  1       -1 0.31439316E-01 0.10888276E+03</pdfrwt>
<totfact> 0.43343906E+04</totfact>
</mgrwt>
</event>
<event>
 4    1  0.1893769E-002  0.8784564E+02  0.7818608E-02  0.1308154E+00
         -1   -1    0    0  501    0 -0.00000000000E+00  0.00000000000E+00  0.11894471729E+04  0.11894471729E+04  0.50400000000E-02 0. -1.
          1   -1    0    0    0  501  0.00000000000E+00 -0.00000000000E+00 -0.16219379237E+01  0.16219457543E+01  0.50400000000E-02 0. -1.
          2    1    1    2    0  502  0.41945775611E+02  0.12408442443E+02  0.54002380181E+03  0.54179251016E+03  0.25500000000E-02 0.  1.
         -2    1    1    2  502    0 -0.41945775611E+02 -0.12408442443E+02  0.64780143316E+03  0.64927660850E+03  0.25500000000E-02 0.  1.
<mgrwt>
<rscale>  0 0.87845641E+02</rscale>
<asrwt>0</asrwt>
<pdfrwt beam="2">  1        1 0.24952999E-03 0.87845641E+02</pdfrwt>
<pdfrwt beam="1">  1       -1 0.18299152E+00 0.87845641E+02</pdfrwt>
<totfact> 0.22451385E+04</totfact>
</mgrwt>
</event>
<event>
 4    1  0.1893769E-002  0.7161566E+02  0.7818608E-02  0.1354684E+00
          1   -1    0    0    0  501  0.00000000000E+00  0.00000000000E+00  0.51161833486E+03  0.51161833488E+03  0.50400000000E-02 0.  1.
         -1   -1    0    0  501    0 -0.00000000000E+00 -0.00000000000E+00 -0.25061636047E+01  0.25061686725E+01  0.50400000000E-02 0.  1.
          2    1    1    2    0  502  0.21580907214E+02 -0.15472713473E+02  0.82103042327E+02  0.86290497647E+02  0.25500000000E-02 0. -1.
         -2    1    1    2  502    0 -0.21580907214E+02  0.15472713473E+02  0.42700912893E+03  0.42783400591E+03  0.25500000000E-02 0. -1.
<mgrwt>
<rscale>  0 0.71615656E+02</rscale>
<asrwt>0</asrwt>
<pdfrwt beam="1">  1        1 0.78710521E-01 0.71615656E+02</pdfrwt>
<pdfrwt beam="2">  1       -1 0.38556399E-03 0.71615656E+02</pdfrwt>
<totfact> 0.26271694E+05</totfact>
</mgrwt>
</event>
<event>
 4    1  0.1893769E-002  0.5480388E+02  0.7818608E-02  0.1421029E+00
         -1   -1    0    0  501    0 -0.00000000000E+00  0.00000000000E+00  0.50455453925E+00  0.50457971093E+00  0.50400000000E-02 0.  1.
          1   -1    0    0    0  501  0.00000000000E+00 -0.00000000000E+00 -0.14881395434E+04  0.14881395434E+04  0.50400000000E-02 0.  1.
          2    1    1    2    0  502 -0.21267230564E+02  0.11306823522E+02 -0.10987376118E+04  0.10990015827E+04  0.25500000000E-02 0.  1.
         -2    1    1    2  502    0  0.21267230564E+02 -0.11306823522E+02 -0.38889737710E+03  0.38964254039E+03  0.25500000000E-02 0.  1.
<mgrwt>
<rscale>  0 0.54803880E+02</rscale>
<asrwt>0</asrwt>
<pdfrwt beam="2">  1        1 0.22894103E+00 0.54803880E+02</pdfrwt>
<pdfrwt beam="1">  1       -1 0.77626903E-04 0.54803880E+02</pdfrwt>
<totfact> 0.41415725E+05</totfact>
</mgrwt>
</event>
<event>
 4    1  0.1893769E-002  0.6652993E+02  0.7818608E-02  0.1372307E+00
         -1   -1    0    0  501    0 -0.00000000000E+00  0.00000000000E+00  0.26637788259E+02  0.26637788736E+02  0.50400000000E-02 0.  1.
          1   -1    0    0    0  501  0.00000000000E+00 -0.00000000000E+00 -0.41540909028E+02  0.41540909334E+02  0.50400000000E-02 0.  1.
          2    1    1    2    0  502  0.26967387943E+02 -0.19265909809E+02 -0.45273075032E+01  0.33450139207E+02  0.25500000000E-02 0. -1.
         -2    1    1    2  502    0 -0.26967387943E+02  0.19265909809E+02 -0.10375813266E+02  0.34728558863E+02  0.25500000000E-02 0. -1.
<mgrwt>
<rscale>  0 0.66529932E+02</rscale>
<asrwt>0</asrwt>
<pdfrwt beam="2">  1        1 0.63909092E-02 0.66529932E+02</pdfrwt>
<pdfrwt beam="1">  1       -1 0.40981213E-02 0.66529932E+02</pdfrwt>
<totfact> 0.21666777E+05</totfact>
</mgrwt>
</event>
<event>
 4    1  0.1893769E-002  0.8656689E+02  0.7818608E-02  0.1311385E+00
         -1   -1    0    0  501    0 -0.00000000000E+00  0.00000000000E+00  0.37027702761E+01  0.37027737061E+01  0.50400000000E-02 0. -1.
          1   -1    0    0    0  501  0.00000000000E+00 -0.00000000000E+00 -0.50596053541E+03  0.50596053544E+03  0.50400000000E-02 0. -1.
          2    1    1    2    0  502 -0.21525116818E+02 -0.33098992757E+02 -0.14670523335E+03  0.15192530887E+03  0.25500000000E-02 0.  1.
         -2    1    1    2  502    0  0.21525116818E+02  0.33098992757E+02 -0.35555253179E+03  0.35773800028E+03  0.25500000000E-02 0.  1.
<mgrwt>
<rscale>  0 0.86566888E+02</rscale>
<asrwt>0</asrwt>
<pdfrwt beam="2">  1        1 0.77840028E-01 0.86566888E+02</pdfrwt>
<pdfrwt beam="1">  1       -1 0.56965763E-03 0.86566888E+02</pdfrwt>
<totfact> 0.15994697E+05</totfact>
</mgrwt>
</event>
<event>
 4    1  0.1893769E-002  0.4907240E+02  0.7818608E-02  0.1450410E+00
          1   -1    0    0    0  501  0.00000000000E+00  0.00000000000E+00  0.31358446745E+02  0.31358447150E+02  0.50400000000E-02 0.  1.
         -1   -1    0    0  501    0 -0.00000000000E+00 -0.00000000000E+00 -0.19198179972E+02  0.19198180634E+02  0.50400000000E-02 0.  1.
          2    1    1    2    0  502  0.24315564526E+02 -0.32791903524E+01  0.62441888836E+01  0.25317773775E+02  0.25500000000E-02 0.  1.
         -2    1    1    2  502    0 -0.24315564526E+02  0.32791903524E+01  0.59160778890E+01  0.25238854009E+02  0.25500000000E-02 0.  1.
<mgrwt>
<rscale>  0 0.49072401E+02</rscale>
<asrwt>0</asrwt>
<pdfrwt beam="1">  1        1 0.48243764E-02 0.49072401E+02</pdfrwt>
<pdfrwt beam="2">  1       -1 0.29535663E-02 0.49072401E+02</pdfrwt>
<totfact> 0.46843899E+05</totfact>
</mgrwt>
</event>
<event>
 4    1  0.1893769E-002  0.4666377E+02  0.7818608E-02  0.1464215E+00
         -1   -1    0    0  501    0 -0.00000000000E+00  0.00000000000E+00  0.20214109899E+02  0.20214110527E+02  0.50400000000E-02 0.  1.
          1   -1    0    0    0  501  0.00000000000E+00 -0.00000000000E+00 -0.26930535586E+02  0.26930536057E+02  0.50400000000E-02 0.  1.
          2    1    1    2    0  502 -0.22984123313E+02  0.34412875156E+01 -0.12718798025E+01  0.23275095466E+02  0.25500000000E-02 0. -1.
         -2    1    1    2  502    0  0.22984123313E+02 -0.34412875156E+01 -0.54445458841E+01  0.23869551119E+02  0.25500000000E-02 0. -1.
<mgrwt>
<rscale>  0 0.46663769E+02</rscale>
<asrwt>0</asrwt>
<pdfrwt beam="2">  1        1 0.41431594E-02 0.46663769E+02</pdfrwt>
<pdfrwt beam="1">  1       -1 0.31098631E-02 0.46663769E+02</pdfrwt>
<totfact> 0.52619346E+05</totfact>
</mgrwt>
</event>
<event>
 4    1  0.1893769E-002  0.1842252E+03  0.7818608E-02  0.1163775E+00
          1   -1    0    0    0  501  0.00000000000E+00  0.00000000000E+00  0.86483797936E+03  0.86483797937E+03  0.50400000000E-02 0.  1.
         -1   -1    0    0  501    0 -0.00000000000E+00 -0.00000000000E+00 -0.98107783096E+01  0.98107796041E+01  0.50400000000E-02 0.  1.
          2    1    1    2    0  502 -0.73360508565E+02  0.48335859552E+02  0.55896739993E+03  0.56582919130E+03  0.25500000000E-02 0.  1.
         -2    1    1    2  502    0  0.73360508565E+02 -0.48335859552E+02  0.29605980112E+03  0.30881956767E+03  0.25500000000E-02 0.  1.
<mgrwt>
<rscale>  0 0.18422523E+03</rscale>
<asrwt>0</asrwt>
<pdfrwt beam="1">  1        1 0.13305201E+00 0.18422523E+03</pdfrwt>
<pdfrwt beam="2">  1       -1 0.15093504E-02 0.18422523E+03</pdfrwt>
<totfact> 0.20507016E+04</totfact>
</mgrwt>
</event>
<event>
 4    1  0.1893769E-002  0.4743301E+02  0.7818608E-02  0.1459700E+00
          1   -1    0    0    0  501  0.00000000000E+00  0.00000000000E+00  0.29198740795E+03  0.29198740799E+03  0.50400000000E-02 0.  1.
         -1   -1    0    0  501    0 -0.00000000000E+00 -0.00000000000E+00 -0.19263557026E+01  0.19263622958E+01  0.50400000000E-02 0.  1.
          2    1    1    2    0  502 -0.12762063773E+02 -0.18611346352E+02  0.99826504804E+02  0.10234541295E+03  0.25500000000E-02 0.  1.
         -2    1    1    2  502    0  0.12762063773E+02  0.18611346352E+02  0.19023454744E+03  0.19156835733E+03  0.25500000000E-02 0.  1.
<mgrwt>
<rscale>  0 0.47433009E+02</rscale>
<asrwt>0</asrwt>
<pdfrwt beam="1">  1        1 0.44921195E-01 0.47433009E+02</pdfrwt>
<pdfrwt beam="2">  1       -1 0.29636256E-03 0.47433009E+02</pdfrwt>
<totfact> 0.68485009E+05</totfact>
</mgrwt>
</event>
<event>
 4    1  0.1893769E-002  0.9527921E+02  0.7818608E-02  0.1290548E+00
         -1   -1    0    0  501    0 -0.00000000000E+00  0.00000000000E+00  0.12633812733E+02  0.12633813738E+02  0.50400000000E-02 0. -1.
          1   -1    0    0    0  501  0.00000000000E+00 -0.00000000000E+00 -0.17963951746E+03  0.17963951753E+03  0.50400000000E-02 0. -1.
          2    1    1    2    0  502  0.37977745622E+02 -0.14944145550E+02 -0.33911977031E+02  0.53062782074E+02  0.25500000000E-02 0. -1.
         -2    1    1    2  502    0 -0.37977745622E+02  0.14944145550E+02 -0.13309372769E+03  0.13921054919E+03  0.25500000000E-02 0. -1.
<mgrwt>
<rscale>  0 0.95279213E+02</rscale>
<asrwt>0</asrwt>
<pdfrwt beam="2">  1        1 0.27636847E-01 0.95279213E+02</pdfrwt>
<pdfrwt beam="1">  1       -1 0.19436637E-02 0.95279213E+02</pdfrwt>
<totfact> 0.10300581E+05</totfact>
</mgrwt>
</event>
<event>
 4    1  0.1893769E-002  0.6739069E+02  0.7818608E-02  0.1369198E+00
          1   -1    0    0    0  501  0.00000000000E+00  0.00000000000E+00  0.31066366396E+03  0.31066366400E+03  0.50400000000E-02 0. -1.
         -1   -1    0    0  501    0 -0.00000000000E+00 -0.00000000000E+00 -0.36546777717E+01  0.36546812470E+01  0.50400000000E-02 0. -1.
          2    1    1    2    0  502  0.35044173903E+01 -0.21800542602E+02  0.27221820764E+03  0.27311224282E+03  0.25500000000E-02 0.  1.
         -2    1    1    2  502    0 -0.35044173903E+01  0.21800542602E+02  0.34790778539E+02  0.41206102423E+02  0.25500000000E-02 0.  1.
<mgrwt>
<rscale>  0 0.67390686E+02</rscale>
<asrwt>0</asrwt>
<pdfrwt beam="1">  1        1 0.47794429E-01 0.67390686E+02</pdfrwt>
<pdfrwt beam="2">  1       -1 0.56225817E-03 0.67390686E+02</pdfrwt>
<totfact> 0.28482386E+05</totfact>
</mgrwt>
</event>
<event>
 4    1  0.1893769E-002  0.9265384E+02  0.7818608E-02  0.1296549E+00
          1   -1    0    0    0  501  0.00000000000E+00  0.00000000000E+00  0.60616911655E+01  0.60616932607E+01  0.50400000000E-02 0.  1.
         -1   -1    0    0  501    0 -0.00000000000E+00 -0.00000000000E+00 -0.35405680287E+03  0.35405680290E+03  0.50400000000E-02 0.  1.
          2    1    1    2    0  502  0.67503116089E+01  0.45806482245E+02 -0.17999726585E+03  0.18585697792E+03  0.25500000000E-02 0. -1.
         -2    1    1    2  502    0 -0.67503116089E+01 -0.45806482245E+02 -0.16799784585E+03  0.17426151824E+03  0.25500000000E-02 0. -1.
<mgrwt>
<rscale>  0 0.92653837E+02</rscale>
<asrwt>0</asrwt>
<pdfrwt beam="1">  1        1 0.93256831E-03 0.92653837E+02</pdfrwt>
<pdfrwt beam="2">  1       -1 0.54470261E-01 0.92653837E+02</pdfrwt>
<totfact> 0.54163100E+04</totfact>
</mgrwt>
</event>
<event>
 4    1  0.1893769E-002  0.5979258E+02  0.7818608E-02  0.1398704E+00
         -1   -1    0    0  501    0 -0.00000000000E+00  0.00000000000E+00  0.13542890389E+03  0.13542890398E+03  0.50400000000E-02 0.  1.
          1   -1    0    0    0  501  0.00000000000E+00 -0.00000000000E+00 -0.65996839771E+01  0.65996859015E+01  0.50400000000E-02 0.  1.
          2    1    1    2    0  502  0.15477174059E+02  0.25578206485E+02  0.64359411547E+02  0.70964226376E+02  0.25500000000E-02 0.  1.
         -2    1    1    2  502    0 -0.15477174059E+02 -0.25578206485E+02  0.64469808367E+02  0.71064363511E+02  0.25500000000E-02 0.  1.
<mgrwt>
<rscale>  0 0.59792578E+02</rscale>
<asrwt>0</asrwt>
<pdfrwt beam="2">  1        1 0.10153363E-02 0.59792578E+02</pdfrwt>
<pdfrwt beam="1">  1       -1 0.20835214E-01 0.59792578E+02</pdfrwt>
<totfact> 0.22514080E+05</totfact>
</mgrwt>
</event>
<event>
 4    1  0.1893769E-002  0.5497542E+02  0.7818608E-02  0.1420215E+00
         -1   -1    0    0  501    0 -0.00000000000E+00  0.00000000000E+00  0.67756025139E+01  0.67756043883E+01  0.50400000000E-02 0. -1.
          1   -1    0    0    0  501  0.00000000000E+00 -0.00000000000E+00 -0.11151392389E+03  0.11151392401E+03  0.50400000000E-02 0. -1.
          2    1    1    2    0  502  0.19083770294E+02 -0.19261912952E+02 -0.42659727085E+02  0.50547639912E+02  0.25500000000E-02 0.  1.
         -2    1    1    2  502    0 -0.19083770294E+02  0.19261912952E+02 -0.62078594294E+02  0.67741888483E+02  0.25500000000E-02 0.  1.
<mgrwt>
<rscale>  0 0.54975418E+02</rscale>
<asrwt>0</asrwt>
<pdfrwt beam="2">  1        1 0.17155987E-01 0.54975418E+02</pdfrwt>
<pdfrwt beam="1">  1       -1 0.10424006E-02 0.54975418E+02</pdfrwt>
<totfact> 0.40293383E+05</totfact>
</mgrwt>
</event>
<event>
 4    1  0.1893769E-002  0.6484469E+02  0.7818608E-02  0.1378557E+00
          1   -1    0    0    0  501  0.00000000000E+00  0.00000000000E+00  0.11941481756E+02  0.11941482819E+02  0.50400000000E-02 0. -1.
         -1   -1    0    0  501    0 -0.00000000000E+00 -0.00000000000E+00 -0.88029986900E+02  0.88029987044E+02  0.50400000000E-02 0. -1.
          2    1    1    2    0  502 -0.25359049170E+02 -0.10207339180E+02 -0.64922051756E+02  0.70442486886E+02  0.25500000000E-02 0.  1.
         -2    1    1    2  502    0  0.25359049170E+02  0.10207339180E+02 -0.11166453388E+02  0.29528982978E+02  0.25500000000E-02 0.  1.
<mgrwt>
<rscale>  0 0.64844693E+02</rscale>
<asrwt>0</asrwt>
<pdfrwt beam="1">  1        1 0.18371512E-02 0.64844693E+02</pdfrwt>
<pdfrwt beam="2">  1       -1 0.13543075E-01 0.64844693E+02</pdfrwt>
<totfact> 0.19839368E+05</totfact>
</mgrwt>
</event>
<event>
 4    1  0.1893769E-002  0.5519607E+02  0.7818608E-02  0.1419174E+00
          1   -1    0    0    0  501  0.00000000000E+00  0.00000000000E+00  0.69782547330E+01  0.69782565531E+01  0.50400000000E-02 0.  1.
         -1   -1    0    0  501    0 -0.00000000000E+00 -0.00000000000E+00 -0.10914638729E+03  0.10914638741E+03  0.50400000000E-02 0.  1.
          2    1    1    2    0  502 -0.23080619095E+02 -0.20587526903E+00 -0.19254295190E+02  0.30058031409E+02  0.25500000000E-02 0.  1.
         -2    1    1    2  502    0  0.23080619095E+02  0.20587526903E+00 -0.82913837369E+02  0.86066612553E+02  0.25500000000E-02 0.  1.
<mgrwt>
<rscale>  0 0.55196065E+02</rscale>
<asrwt>0</asrwt>
<pdfrwt beam="1">  1        1 0.10735779E-02 0.55196065E+02</pdfrwt>
<pdfrwt beam="2">  1       -1 0.16791751E-01 0.55196065E+02</pdfrwt>
<totfact> 0.28677643E+05</totfact>
</mgrwt>
</event>
<event>
 4    1  0.1893769E-002  0.4825472E+02  0.7818608E-02  0.1454989E+00
          1   -1    0    0    0  501  0.00000000000E+00  0.00000000000E+00  0.13205329330E+02  0.13205330292E+02  0.50400000000E-02 0.  1.
         -1   -1    0    0  501    0 -0.00000000000E+00 -0.00000000000E+00 -0.44082923943E+02  0.44082924231E+02  0.50400000000E-02 0.  1.
          2    1    1    2    0  502 -0.16211527126E+02 -0.17305955559E+02 -0.20724173802E+02  0.31492873731E+02  0.25500000000E-02 0. -1.
         -2    1    1    2  502    0  0.16211527126E+02  0.17305955559E+02 -0.10153420811E+02  0.25795380793E+02  0.25500000000E-02 0. -1.
<mgrwt>
<rscale>  0 0.48254723E+02</rscale>
<asrwt>0</asrwt>
<pdfrwt beam="1">  1        1 0.20315892E-02 0.48254723E+02</pdfrwt>
<pdfrwt beam="2">  1       -1 0.67819883E-02 0.48254723E+02</pdfrwt>
<totfact> 0.45191262E+05</totfact>
</mgrwt>
</event>
<event>
 4    1  0.1893769E-002  0.6351824E+02  0.7818608E-02  0.1383634E+00
          1   -1    0    0    0  501  0.00000000000E+00  0.00000000000E+00  0.10951543413E+03  0.10951543425E+03  0.50400000000E-02 0. -1.
         -1   -1    0    0  501    0 -0.00000000000E+00 -0.00000000000E+00 -0.92100412685E+01  0.92100426476E+01  0.50400000000E-02 0. -1.
          2    1    1    2    0  502 -0.22773931823E+02 -0.82082104928E+01  0.11727336886E+02  0.26899017215E+02  0.25500000000E-02 0.  1.
         -2    1    1    2  502    0  0.22773931823E+02  0.82082104928E+01  0.88578055980E+02  0.91826459683E+02  0.25500000000E-02 0.  1.
<mgrwt>
<rscale>  0 0.63518242E+02</rscale>
<asrwt>0</asrwt>
<pdfrwt beam="1">  1        1 0.16848528E-01 0.63518242E+02</pdfrwt>
<pdfrwt beam="2">  1       -1 0.14169296E-02 0.63518242E+02</pdfrwt>
<totfact> 0.27711252E+05</totfact>
</mgrwt>
</event>
<event>
 4    1  0.1893769E-002  0.7555730E+02  0.7818608E-02  0.1342154E+00
         -1   -1    0    0  501    0 -0.00000000000E+00  0.00000000000E+00  0.54702834132E+01  0.54702857350E+01  0.50400000000E-02 0.  1.
          1   -1    0    0    0  501  0.00000000000E+00 -0.00000000000E+00 -0.26090529912E+03  0.26090529917E+03  0.50400000000E-02 0.  1.
          2    1    1    2    0  502  0.17834849959E+02  0.33303483601E+02 -0.12719049459E+03  0.13268242466E+03  0.25500000000E-02 0.  1.
         -2    1    1    2  502    0 -0.17834849959E+02 -0.33303483601E+02 -0.12824452111E+03  0.13369316024E+03  0.25500000000E-02 0.  1.
<mgrwt>
<rscale>  0 0.75557296E+02</rscale>
<asrwt>0</asrwt>
<pdfrwt beam="2">  1        1 0.40139267E-01 0.75557296E+02</pdfrwt>
<pdfrwt beam="1">  1       -1 0.84158245E-03 0.75557296E+02</pdfrwt>
<totfact> 0.20490974E+05</totfact>
</mgrwt>
</event>
<event>
 4    1  0.1893769E-002  0.5553349E+02  0.7818608E-02  0.1417593E+00
         -1   -1    0    0  501    0 -0.00000000000E+00  0.00000000000E+00  0.28133698400E+02  0.28133698852E+02  0.50400000000E-02 0.  1.
          1   -1    0    0    0  501  0.00000000000E+00 -0.00000000000E+00 -0.27404572617E+02  0.27404573080E+02  0.50400000000E-02 0.  1.
          2    1    1    2    0  502 -0.19704865633E+01 -0.25835553309E+02 -0.96179489524E+01  0.27638082073E+02  0.25500000000E-02 0.  1.
         -2    1    1    2  502    0  0.19704865633E+01  0.25835553309E+02  0.10347074736E+02  0.27900189859E+02  0.25500000000E-02 0.  1.
<mgrwt>
<rscale>  0 0.55533486E+02</rscale>
<asrwt>0</asrwt>
<pdfrwt beam="2">  1        1 0.42160882E-02 0.55533486E+02</pdfrwt>
<pdfrwt beam="1">  1       -1 0.43282614E-02 0.55533486E+02</pdfrwt>
<totfact> 0.33506996E+05</totfact>
</mgrwt>
</event>
<event>
 4    1  0.1893769E-002  0.9861326E+02  0.7818608E-02  0.1283239E+00
          1   -1    0    0    0  501  0.00000000000E+00  0.00000000000E+00  0.40735820717E+03  0.40735820720E+03  0.50400000000E-02 0.  1.
         -1   -1    0    0  501    0 -0.00000000000E+00 -0.00000000000E+00 -0.59680724420E+01  0.59680745702E+01  0.50400000000E-02 0.  1.
          2    1    1    2    0  502 -0.13041526656E+02 -0.45919949447E+02  0.25244138822E+03  0.25691511764E+03  0.25500000000E-02 0.  1.
         -2    1    1    2  502    0  0.13041526656E+02  0.45919949447E+02  0.14894874651E+03  0.15641116414E+03  0.25500000000E-02 0.  1.
<mgrwt>
<rscale>  0 0.98613259E+02</rscale>
<asrwt>0</asrwt>
<pdfrwt beam="1">  1        1 0.62670513E-01 0.98613259E+02</pdfrwt>
<pdfrwt beam="2">  1       -1 0.91816488E-03 0.98613259E+02</pdfrwt>
<totfact> 0.10977026E+05</totfact>
</mgrwt>
</event>
<event>
 4    1  0.1893769E-002  0.4115439E+02  0.7818608E-02  0.1499884E+00
         -1   -1    0    0  501    0 -0.00000000000E+00  0.00000000000E+00  0.37029433152E+01  0.37029467451E+01  0.50400000000E-02 0. -1.
          1   -1    0    0    0  501  0.00000000000E+00 -0.00000000000E+00 -0.11434709123E+03  0.11434709134E+03  0.50400000000E-02 0. -1.
          2    1    1    2    0  502 -0.12654037752E+02 -0.16196754748E+02 -0.52509419386E+02  0.56388816857E+02  0.25500000000E-02 0.  1.
         -2    1    1    2  502    0  0.12654037752E+02  0.16196754748E+02 -0.58134728525E+02  0.61661221225E+02  0.25500000000E-02 0.  1.
<mgrwt>
<rscale>  0 0.41154393E+02</rscale>
<asrwt>0</asrwt>
<pdfrwt beam="2">  1        1 0.17591858E-01 0.41154393E+02</pdfrwt>
<pdfrwt beam="1">  1       -1 0.56968395E-03 0.41154393E+02</pdfrwt>
<totfact> 0.83508640E+05</totfact>
</mgrwt>
</event>
<event>
 4    1  0.1893769E-002  0.8078541E+02  0.7818608E-02  0.1326837E+00
          1   -1    0    0    0  501  0.00000000000E+00  0.00000000000E+00  0.90405598054E+03  0.90405598056E+03  0.50400000000E-02 0.  1.
         -1   -1    0    0  501    0 -0.00000000000E+00 -0.00000000000E+00 -0.18047195270E+01  0.18047265646E+01  0.50400000000E-02 0.  1.
          2    1    1    2    0  502  0.33498032321E+02 -0.21237307524E+02  0.36541322054E+03  0.36755946887E+03  0.25500000000E-02 0.  1.
         -2    1    1    2  502    0 -0.33498032321E+02  0.21237307524E+02  0.53683804047E+03  0.53830123825E+03  0.25500000000E-02 0.  1.
<mgrwt>
<rscale>  0 0.80785411E+02</rscale>
<asrwt>0</asrwt>
<pdfrwt beam="1">  1        1 0.13908555E+00 0.80785411E+02</pdfrwt>
<pdfrwt beam="2">  1       -1 0.27764967E-03 0.80785411E+02</pdfrwt>
<totfact> 0.19112898E+05</totfact>
</mgrwt>
</event>
<event>
 4    1  0.1893769E-002  0.5921307E+02  0.7818608E-02  0.1401164E+00
         -1   -1    0    0  501    0 -0.00000000000E+00  0.00000000000E+00  0.94601803171E+03  0.94601803172E+03  0.50400000000E-02 0. -1.
          1   -1    0    0    0  501  0.00000000000E+00 -0.00000000000E+00 -0.92655790705E+00  0.92657161446E+00  0.50400000000E-02 0. -1.
          2    1    1    2    0  502 -0.55083477588E+01 -0.26077384762E+02  0.26639260626E+03  0.26772260377E+03  0.25500000000E-02 0. -1.
         -2    1    1    2  502    0  0.55083477588E+01  0.26077384762E+02  0.67869886754E+03  0.67922199956E+03  0.25500000000E-02 0. -1.
<mgrwt>
<rscale>  0 0.59213072E+02</rscale>
<asrwt>0</asrwt>
<pdfrwt beam="2">  1        1 0.14254904E-03 0.59213072E+02</pdfrwt>
<pdfrwt beam="1">  1       -1 0.14554061E+00 0.59213072E+02</pdfrwt>
<totfact> 0.83313583E+04</totfact>
</mgrwt>
</event>
<event>
 4    1  0.1893769E-002  0.4874979E+02  0.7818608E-02  0.1452204E+00
         -1   -1    0    0  501    0 -0.00000000000E+00  0.00000000000E+00  0.14396440409E+01  0.14396528631E+01  0.50400000000E-02 0. -1.
          1   -1    0    0    0  501  0.00000000000E+00 -0.00000000000E+00 -0.41269480950E+03  0.41269480954E+03  0.50400000000E-02 0. -1.
          2    1    1    2    0  502  0.13715680116E+02 -0.14614951244E+02 -0.32346748047E+03  0.32408783934E+03  0.25500000000E-02 0.  1.
         -2    1    1    2  502    0 -0.13715680116E+02  0.14614951244E+02 -0.87787684992E+02  0.90046623056E+02  0.25500000000E-02 0.  1.
<mgrwt>
<rscale>  0 0.48749788E+02</rscale>
<asrwt>0</asrwt>
<pdfrwt beam="2">  1        1 0.63491415E-01 0.48749788E+02</pdfrwt>
<pdfrwt beam="1">  1       -1 0.22148471E-03 0.48749788E+02</pdfrwt>
<totfact> 0.67699173E+05</totfact>
</mgrwt>
</event>
<event>
 4    1  0.1893769E-002  0.5124889E+02  0.7818608E-02  0.1438719E+00
         -1   -1    0    0  501    0 -0.00000000000E+00  0.00000000000E+00  0.34505710132E+01  0.34505746940E+01  0.50400000000E-02 0. -1.
          1   -1    0    0    0  501  0.00000000000E+00 -0.00000000000E+00 -0.19029076770E+03  0.19029076777E+03  0.50400000000E-02 0. -1.
          2    1    1    2    0  502 -0.19009448674E+02 -0.16004421894E+02 -0.69777777503E+02  0.74070499518E+02  0.25500000000E-02 0.  1.
         -2    1    1    2  502    0  0.19009448674E+02  0.16004421894E+02 -0.11706241919E+03  0.11967084295E+03  0.25500000000E-02 0.  1.
<mgrwt>
<rscale>  0 0.51248890E+02</rscale>
<asrwt>0</asrwt>
<pdfrwt beam="2">  1        1 0.29275495E-01 0.51248890E+02</pdfrwt>
<pdfrwt beam="1">  1       -1 0.53085752E-03 0.51248890E+02</pdfrwt>
<totfact> 0.52384607E+05</totfact>
</mgrwt>
</event>
<event>
 4    1  0.1893769E-002  0.4499357E+02  0.7818608E-02  0.1474382E+00
         -1   -1    0    0  501    0 -0.00000000000E+00  0.00000000000E+00  0.59695268243E+02  0.59695268455E+02  0.50400000000E-02 0.  1.
          1   -1    0    0    0  501  0.00000000000E+00 -0.00000000000E+00 -0.84781468615E+01  0.84781483596E+01  0.50400000000E-02 0.  1.
          2    1    1    2    0  502 -0.12707612364E+02 -0.17975809047E+02  0.32632889841E+02  0.39363925475E+02  0.25500000000E-02 0.  1.
         -2    1    1    2  502    0  0.12707612364E+02  0.17975809047E+02  0.18584231540E+02  0.28809491340E+02  0.25500000000E-02 0.  1.
<mgrwt>
<rscale>  0 0.44993569E+02</rscale>
<asrwt>0</asrwt>
<pdfrwt beam="2">  1        1 0.13043304E-02 0.44993569E+02</pdfrwt>
<pdfrwt beam="1">  1       -1 0.91838877E-02 0.44993569E+02</pdfrwt>
<totfact> 0.51858124E+05</totfact>
</mgrwt>
</event>
<event>
 4    1  0.1893769E-002  0.4988260E+02  0.7818608E-02  0.1445976E+00
         -1   -1    0    0  501    0 -0.00000000000E+00  0.00000000000E+00  0.76966115632E+00  0.76967765795E+00  0.50400000000E-02 0. -1.
          1   -1    0    0    0  501  0.00000000000E+00 -0.00000000000E+00 -0.80822792578E+03  0.80822792579E+03  0.50400000000E-02 0. -1.
          2    1    1    2    0  502  0.10224509942E+02  0.22084845034E+02 -0.49224354501E+03  0.49284479158E+03  0.25500000000E-02 0.  1.
         -2    1    1    2  502    0 -0.10224509942E+02 -0.22084845034E+02 -0.31521471962E+03  0.31615281187E+03  0.25500000000E-02 0.  1.
<mgrwt>
<rscale>  0 0.49882595E+02</rscale>
<asrwt>0</asrwt>
<pdfrwt beam="2">  1        1 0.12434208E+00 0.49882595E+02</pdfrwt>
<pdfrwt beam="1">  1       -1 0.11841133E-03 0.49882595E+02</pdfrwt>
<totfact> 0.66239176E+05</totfact>
</mgrwt>
</event>
<event>
 4    1  0.1893769E-002  0.4847678E+02  0.7818608E-02  0.1453735E+00
          1   -1    0    0    0  501  0.00000000000E+00  0.00000000000E+00  0.73731756287E+03  0.73731756289E+03  0.50400000000E-02 0. -1.
         -1   -1    0    0  501    0 -0.00000000000E+00 -0.00000000000E+00 -0.79679884220E+00  0.79681478183E+00  0.50400000000E-02 0. -1.
          2    1    1    2    0  502 -0.16363154831E+02 -0.16420526141E+02  0.47604721191E+03  0.47661130335E+03  0.25500000000E-02 0. -1.
         -2    1    1    2  502    0  0.16363154831E+02  0.16420526141E+02  0.26047355212E+03  0.26150307432E+03  0.25500000000E-02 0. -1.
<mgrwt>
<rscale>  0 0.48476785E+02</rscale>
<asrwt>0</asrwt>
<pdfrwt beam="1">  1        1 0.11343339E+00 0.48476785E+02</pdfrwt>
<pdfrwt beam="2">  1       -1 0.12258575E-03 0.48476785E+02</pdfrwt>
<totfact> 0.71536227E+05</totfact>
</mgrwt>
</event>
<event>
 4    1  0.1893769E-002  0.5107730E+02  0.7818608E-02  0.1439616E+00
         -1   -1    0    0  501    0 -0.00000000000E+00  0.00000000000E+00  0.21564825477E+02  0.21564826066E+02  0.50400000000E-02 0.  1.
          1   -1    0    0    0  501  0.00000000000E+00 -0.00000000000E+00 -0.30244746901E+02  0.30244747320E+02  0.50400000000E-02 0.  1.
          2    1    1    2    0  502  0.28435724670E+01 -0.23886745155E+02  0.43597245274E+01  0.24447284163E+02  0.25500000000E-02 0. -1.
         -2    1    1    2  502    0 -0.28435724670E+01  0.23886745155E+02 -0.13039645951E+02  0.27362289223E+02  0.25500000000E-02 0. -1.
<mgrwt>
<rscale>  0 0.51077303E+02</rscale>
<asrwt>0</asrwt>
<pdfrwt beam="2">  1        1 0.46530381E-02 0.51077303E+02</pdfrwt>
<pdfrwt beam="1">  1       -1 0.33176655E-02 0.51077303E+02</pdfrwt>
<totfact> 0.42102612E+05</totfact>
</mgrwt>
</event>
<event>
 4    1  0.1893769E-002  0.4429245E+02  0.7818608E-02  0.1478808E+00
         -1   -1    0    0  501    0 -0.00000000000E+00  0.00000000000E+00  0.42815326572E+00  0.42818292883E+00  0.50400000000E-02 0.  1.
          1   -1    0    0    0  501  0.00000000000E+00 -0.00000000000E+00 -0.11454737508E+04  0.11454737508E+04  0.50400000000E-02 0.  1.
          2    1    1    2    0  502  0.19935610548E+02  0.92800317786E+01 -0.64051928942E+03  0.64089664352E+03  0.25500000000E-02 0.  1.
         -2    1    1    2  502    0 -0.19935610548E+02 -0.92800317786E+01 -0.50452630809E+03  0.50500529019E+03  0.25500000000E-02 0.  1.
<mgrwt>
<rscale>  0 0.44292452E+02</rscale>
<asrwt>0</asrwt>
<pdfrwt beam="2">  1        1 0.17622428E+00 0.44292452E+02</pdfrwt>
<pdfrwt beam="1">  1       -1 0.65872933E-04 0.44292452E+02</pdfrwt>
<totfact> 0.81836877E+05</totfact>
</mgrwt>
</event>
<event>
 4    1  0.1893769E-002  0.5157815E+02  0.7818608E-02  0.1437011E+00
          1   -1    0    0    0  501  0.00000000000E+00  0.00000000000E+00  0.22151075886E+02  0.22151076459E+02  0.50400000000E-02 0.  1.
         -1   -1    0    0  501    0 -0.00000000000E+00 -0.00000000000E+00 -0.30024566783E+02  0.30024567206E+02  0.50400000000E-02 0.  1.
          2    1    1    2    0  502 -0.19885131771E+02 -0.10709042789E+02  0.86563363692E+01  0.24187480829E+02  0.25500000000E-02 0. -1.
         -2    1    1    2  502    0  0.19885131771E+02  0.10709042789E+02 -0.16529827266E+02  0.27988162837E+02  0.25500000000E-02 0. -1.
<mgrwt>
<rscale>  0 0.51578154E+02</rscale>
<asrwt>0</asrwt>
<pdfrwt beam="1">  1        1 0.34078579E-02 0.51578154E+02</pdfrwt>
<pdfrwt beam="2">  1       -1 0.46191642E-02 0.51578154E+02</pdfrwt>
<totfact> 0.39880817E+05</totfact>
</mgrwt>
</event>
<event>
 4    1  0.1893769E-002  0.4353677E+02  0.7818608E-02  0.1483689E+00
         -1   -1    0    0  501    0 -0.00000000000E+00  0.00000000000E+00  0.10538078427E+03  0.10538078439E+03  0.50400000000E-02 0.  1.
          1   -1    0    0    0  501  0.00000000000E+00 -0.00000000000E+00 -0.44966689365E+01  0.44966717610E+01  0.50400000000E-02 0.  1.
          2    1    1    2    0  502 -0.20122234774E+02 -0.80118420782E+01  0.55953341146E+02  0.59998919472E+02  0.25500000000E-02 0.  1.
         -2    1    1    2  502    0  0.20122234774E+02  0.80118420782E+01  0.44930774188E+02  0.49878536681E+02  0.25500000000E-02 0.  1.
<mgrwt>
<rscale>  0 0.43536773E+02</rscale>
<asrwt>0</asrwt>
<pdfrwt beam="2">  1        1 0.69179555E-03 0.43536773E+02</pdfrwt>
<pdfrwt beam="1">  1       -1 0.16212426E-01 0.43536773E+02</pdfrwt>
<totfact> 0.51837960E+05</totfact>
</mgrwt>
</event>
<event>
 4    1  0.1893769E-002  0.6496333E+02  0.7818608E-02  0.1378109E+00
         -1   -1    0    0  501    0 -0.00000000000E+00  0.00000000000E+00  0.21130480674E+03  0.21130480680E+03  0.50400000000E-02 0. -1.
          1   -1    0    0    0  501  0.00000000000E+00 -0.00000000000E+00 -0.49930631501E+01  0.49930656938E+01  0.50400000000E-02 0. -1.
          2    1    1    2    0  502 -0.19749181768E+01 -0.31755662335E+02  0.12492201874E+03  0.12891017479E+03  0.25500000000E-02 0. -1.
         -2    1    1    2  502    0  0.19749181768E+01  0.31755662335E+02  0.81389724853E+02  0.87387697705E+02  0.25500000000E-02 0. -1.
<mgrwt>
<rscale>  0 0.64963329E+02</rscale>
<asrwt>0</asrwt>
<pdfrwt beam="2">  1        1 0.76816389E-03 0.64963329E+02</pdfrwt>
<pdfrwt beam="1">  1       -1 0.32508427E-01 0.64963329E+02</pdfrwt>
<totfact> 0.16356816E+05</totfact>
</mgrwt>
</event>
<event>
 4    1  0.1893769E-002  0.4966097E+02  0.7818608E-02  0.1447179E+00
         -1   -1    0    0  501    0 -0.00000000000E+00  0.00000000000E+00  0.32695912396E+01  0.32695951241E+01  0.50400000000E-02 0. -1.
          1   -1    0    0    0  501  0.00000000000E+00 -0.00000000000E+00 -0.18857174395E+03  0.18857174402E+03  0.50400000000E-02 0. -1.
          2    1    1    2    0  502  0.14680818400E+02  0.17204511408E+02 -0.53061003405E+02  0.57680080882E+02  0.25500000000E-02 0.  1.
         -2    1    1    2  502    0 -0.14680818400E+02 -0.17204511408E+02 -0.13224114930E+03  0.13416125826E+03  0.25500000000E-02 0.  1.
<mgrwt>
<rscale>  0 0.49660967E+02</rscale>
<asrwt>0</asrwt>
<pdfrwt beam="2">  1        1 0.29011029E-01 0.49660967E+02</pdfrwt>
<pdfrwt beam="1">  1       -1 0.50301449E-03 0.49660967E+02</pdfrwt>
<totfact> 0.56596797E+05</totfact>
</mgrwt>
</event>
<event>
 4    1  0.1893769E-002  0.5053019E+02  0.7818608E-02  0.1442503E+00
          1   -1    0    0    0  501  0.00000000000E+00  0.00000000000E+00  0.26301016545E+02  0.26301017028E+02  0.50400000000E-02 0.  1.
         -1   -1    0    0  501    0 -0.00000000000E+00 -0.00000000000E+00 -0.24269970379E+02  0.24269970903E+02  0.50400000000E-02 0.  1.
          2    1    1    2    0  502  0.80568930412E+01 -0.23784487894E+02 -0.17633214983E+01  0.25173889232E+02  0.25500000000E-02 0. -1.
         -2    1    1    2  502    0 -0.80568930412E+01  0.23784487894E+02  0.37943676638E+01  0.25397098699E+02  0.25500000000E-02 0. -1.
<mgrwt>
<rscale>  0 0.50530186E+02</rscale>
<asrwt>0</asrwt>
<pdfrwt beam="1">  1        1 0.40463103E-02 0.50530186E+02</pdfrwt>
<pdfrwt beam="2">  1       -1 0.37338417E-02 0.50530186E+02</pdfrwt>
<totfact> 0.42749862E+05</totfact>
</mgrwt>
</event>
<event>
 4    1  0.1893769E-002  0.5871597E+02  0.7818608E-02  0.1403301E+00
         -1   -1    0    0  501    0 -0.00000000000E+00  0.00000000000E+00  0.12091994026E+02  0.12091995076E+02  0.50400000000E-02 0. -1.
          1   -1    0    0    0  501  0.00000000000E+00 -0.00000000000E+00 -0.71277847225E+02  0.71277847404E+02  0.50400000000E-02 0. -1.
          2    1    1    2    0  502  0.42040008622E+01  0.27217397463E+02 -0.44033288722E+02  0.51936411794E+02  0.25500000000E-02 0. -1.
         -2    1    1    2  502    0 -0.42040008622E+01 -0.27217397463E+02 -0.15152564478E+02  0.31433430685E+02  0.25500000000E-02 0. -1.
<mgrwt>
<rscale>  0 0.58715972E+02</rscale>
<asrwt>0</asrwt>
<pdfrwt beam="2">  1        1 0.10965822E-01 0.58715972E+02</pdfrwt>
<pdfrwt beam="1">  1       -1 0.18603069E-02 0.58715972E+02</pdfrwt>
<totfact> 0.32062940E+05</totfact>
</mgrwt>
</event>
<event>
 4    1  0.1893769E-002  0.7133931E+02  0.7818608E-02  0.1355597E+00
          1   -1    0    0    0  501  0.00000000000E+00  0.00000000000E+00  0.16570380566E+03  0.16570380574E+03  0.50400000000E-02 0. -1.
         -1   -1    0    0  501    0 -0.00000000000E+00 -0.00000000000E+00 -0.76783031161E+01  0.76783047702E+01  0.50400000000E-02 0. -1.
          2    1    1    2    0  502 -0.22012811436E+02 -0.27437358950E+02  0.64644322366E+02  0.73595250894E+02  0.25500000000E-02 0.  1.
         -2    1    1    2  502    0  0.22012811436E+02  0.27437358950E+02  0.93381180178E+02  0.99786859613E+02  0.25500000000E-02 0.  1.
<mgrwt>
<rscale>  0 0.71339307E+02</rscale>
<asrwt>0</asrwt>
<pdfrwt beam="1">  1        1 0.25492893E-01 0.71339307E+02</pdfrwt>
<pdfrwt beam="2">  1       -1 0.11812775E-02 0.71339307E+02</pdfrwt>
<totfact> 0.21900918E+05</totfact>
</mgrwt>
</event>
<event>
 4    1  0.1893769E-002  0.4573485E+02  0.7818608E-02  0.1469806E+00
         -1   -1    0    0  501    0 -0.00000000000E+00  0.00000000000E+00  0.41731689932E+02  0.41731690237E+02  0.50400000000E-02 0. -1.
          1   -1    0    0    0  501  0.00000000000E+00 -0.00000000000E+00 -0.12530502611E+02  0.12530503624E+02  0.50400000000E-02 0. -1.
          2    1    1    2    0  502 -0.58913526585E+01  0.21094105884E+02  0.67979485245E+01  0.22932105220E+02  0.25500000000E-02 0. -1.
         -2    1    1    2  502    0  0.58913526585E+01 -0.21094105884E+02  0.22403238797E+02  0.31330088641E+02  0.25500000000E-02 0. -1.
<mgrwt>
<rscale>  0 0.45734848E+02</rscale>
<asrwt>0</asrwt>
<pdfrwt beam="2">  1        1 0.19277698E-02 0.45734848E+02</pdfrwt>
<pdfrwt beam="1">  1       -1 0.64202600E-02 0.45734848E+02</pdfrwt>
<totfact> 0.51796412E+05</totfact>
</mgrwt>
</event>
<event>
 4    1  0.1893769E-002  0.4265094E+02  0.7818608E-02  0.1489563E+00
         -1   -1    0    0  501    0 -0.00000000000E+00  0.00000000000E+00  0.37616254292E+01  0.37616288056E+01  0.50400000000E-02 0. -1.
          1   -1    0    0    0  501  0.00000000000E+00 -0.00000000000E+00 -0.12089864634E+03  0.12089864644E+03  0.50400000000E-02 0. -1.
          2    1    1    2    0  502 -0.17408078568E+02 -0.10332699741E+02 -0.78168675285E+02  0.80747431449E+02  0.25500000000E-02 0. -1.
         -2    1    1    2  502    0  0.17408078568E+02  0.10332699741E+02 -0.38968345623E+02  0.43912843798E+02  0.25500000000E-02 0. -1.
<mgrwt>
<rscale>  0 0.42650939E+02</rscale>
<asrwt>0</asrwt>
<pdfrwt beam="2">  1        1 0.18599789E-01 0.42650939E+02</pdfrwt>
<pdfrwt beam="1">  1       -1 0.57871197E-03 0.42650939E+02</pdfrwt>
<totfact> 0.77072229E+05</totfact>
</mgrwt>
</event>
<event>
 4    1  0.1893769E-002  0.1264012E+03  0.7818608E-02  0.1232896E+00
          1   -1    0    0    0  501  0.00000000000E+00  0.00000000000E+00  0.42254682035E+03  0.42254682038E+03  0.50400000000E-02 0.  1.
         -1   -1    0    0  501    0 -0.00000000000E+00 -0.00000000000E+00 -0.94529496131E+01  0.94529509567E+01  0.50400000000E-02 0.  1.
          2    1    1    2    0  502 -0.21461407911E+02  0.39643731841E+02  0.35793533779E+03  0.36076297419E+03  0.25500000000E-02 0. -1.
         -2    1    1    2  502    0  0.21461407911E+02 -0.39643731841E+02  0.55158532946E+02  0.71236797142E+02  0.25500000000E-02 0. -1.
<mgrwt>
<rscale>  0 0.12640117E+03</rscale>
<asrwt>0</asrwt>
<pdfrwt beam="1">  1        1 0.65007215E-01 0.12640117E+03</pdfrwt>
<pdfrwt beam="2">  1       -1 0.14542998E-02 0.12640117E+03</pdfrwt>
<totfact> 0.56362485E+04</totfact>
</mgrwt>
</event>
<event>
 4    1  0.1893769E-002  0.4927540E+02  0.7818608E-02  0.1449289E+00
         -1   -1    0    0  501    0 -0.00000000000E+00  0.00000000000E+00  0.21352494744E+01  0.21352554225E+01  0.50400000000E-02 0.  1.
          1   -1    0    0    0  501  0.00000000000E+00 -0.00000000000E+00 -0.28428317657E+03  0.28428317661E+03  0.50400000000E-02 0.  1.
          2    1    1    2    0  502 -0.18648544693E+02 -0.13829434571E+02 -0.18900412144E+03  0.19042473423E+03  0.25500000000E-02 0.  1.
         -2    1    1    2  502    0  0.18648544693E+02  0.13829434571E+02 -0.93143805654E+02  0.95993697803E+02  0.25500000000E-02 0.  1.
<mgrwt>
<rscale>  0 0.49275404E+02</rscale>
<asrwt>0</asrwt>
<pdfrwt beam="2">  1        1 0.43735844E-01 0.49275404E+02</pdfrwt>
<pdfrwt beam="1">  1       -1 0.32850060E-03 0.49275404E+02</pdfrwt>
<totfact> 0.62008132E+05</totfact>
</mgrwt>
</event>
<event>
 4    1  0.1893769E-002  0.4787830E+02  0.7818608E-02  0.1457133E+00
          1   -1    0    0    0  501  0.00000000000E+00  0.00000000000E+00  0.64306152335E+02  0.64306152532E+02  0.50400000000E-02 0.  1.
         -1   -1    0    0  501    0 -0.00000000000E+00 -0.00000000000E+00 -0.89117899673E+01  0.89117913925E+01  0.50400000000E-02 0.  1.
          2    1    1    2    0  502  0.22670008252E+02 -0.27318940225E+01  0.16702466518E+02  0.28290721330E+02  0.25500000000E-02 0.  1.
         -2    1    1    2  502    0 -0.22670008252E+02  0.27318940225E+01  0.38691895850E+02  0.44927222594E+02  0.25500000000E-02 0.  1.
<mgrwt>
<rscale>  0 0.47878303E+02</rscale>
<asrwt>0</asrwt>
<pdfrwt beam="1">  1        1 0.98932544E-02 0.47878303E+02</pdfrwt>
<pdfrwt beam="2">  1       -1 0.13710447E-02 0.47878303E+02</pdfrwt>
<totfact> 0.53419418E+05</totfact>
</mgrwt>
</event>
<event>
 4    1  0.1893769E-002  0.4017992E+02  0.7818608E-02  0.1506892E+00
          1   -1    0    0    0  501  0.00000000000E+00  0.00000000000E+00  0.69612145753E+03  0.69612145755E+03  0.50400000000E-02 0. -1.
         -1   -1    0    0  501    0 -0.00000000000E+00 -0.00000000000E+00 -0.57978214986E+00  0.57980405560E+00  0.50400000000E-02 0. -1.
          2    1    1    2    0  502  0.11724823713E+02  0.16305409570E+02  0.35675656117E+03  0.35732139849E+03  0.25500000000E-02 0.  1.
         -2    1    1    2  502    0 -0.11724823713E+02 -0.16305409570E+02  0.33878511421E+03  0.33937986312E+03  0.25500000000E-02 0.  1.
<mgrwt>
<rscale>  0 0.40179917E+02</rscale>
<asrwt>0</asrwt>
<pdfrwt beam="1">  1        1 0.10709616E+00 0.40179917E+02</pdfrwt>
<pdfrwt beam="2">  1       -1 0.89198480E-04 0.40179917E+02</pdfrwt>
<totfact> 0.11333072E+06</totfact>
</mgrwt>
</event>
<event>
 4    1  0.1893769E-002  0.8957128E+02  0.7818608E-02  0.1303893E+00
         -1   -1    0    0  501    0 -0.00000000000E+00  0.00000000000E+00  0.77300392368E+01  0.77300408798E+01  0.50400000000E-02 0.  1.
          1   -1    0    0    0  501  0.00000000000E+00 -0.00000000000E+00 -0.25947517960E+03  0.25947517965E+03  0.50400000000E-02 0.  1.
          2    1    1    2    0  502 -0.37750898876E+02 -0.23713192077E+02 -0.13863675213E+03  0.14562827642E+03  0.25500000000E-02 0.  1.
         -2    1    1    2  502    0  0.37750898876E+02  0.23713192077E+02 -0.11310838823E+03  0.12157694411E+03  0.25500000000E-02 0.  1.
<mgrwt>
<rscale>  0 0.89571280E+02</rscale>
<asrwt>0</asrwt>
<pdfrwt beam="2">  1        1 0.39919252E-01 0.89571280E+02</pdfrwt>
<pdfrwt beam="1">  1       -1 0.11892371E-02 0.89571280E+02</pdfrwt>
<totfact> 0.13061261E+05</totfact>
</mgrwt>
</event>
<event>
 4    1  0.1893769E-002  0.4235965E+02  0.7818608E-02  0.1491532E+00
          1   -1    0    0    0  501  0.00000000000E+00  0.00000000000E+00  0.52456312979E+03  0.52456312981E+03  0.50400000000E-02 0.  1.
         -1   -1    0    0  501    0 -0.00000000000E+00 -0.00000000000E+00 -0.85515177902E+00  0.85516663099E+00  0.50400000000E-02 0.  1.
          2    1    1    2    0  502  0.27417585211E+01  0.19892149879E+02  0.34540232936E+03  0.34598552571E+03  0.25500000000E-02 0.  1.
         -2    1    1    2  502    0 -0.27417585211E+01 -0.19892149879E+02  0.17830564865E+03  0.17943277073E+03  0.25500000000E-02 0.  1.
<mgrwt>
<rscale>  0 0.42359651E+02</rscale>
<asrwt>0</asrwt>
<pdfrwt beam="1">  1        1 0.80702105E-01 0.42359651E+02</pdfrwt>
<pdfrwt beam="2">  1       -1 0.13156282E-03 0.42359651E+02</pdfrwt>
<totfact> 0.98420479E+05</totfact>
</mgrwt>
</event>
<event>
 4    1  0.1893769E-002  0.5172924E+02  0.7818608E-02  0.1436232E+00
         -1   -1    0    0  501    0 -0.00000000000E+00  0.00000000000E+00  0.47964511644E+02  0.47964511909E+02  0.50400000000E-02 0. -1.
          1   -1    0    0    0  501  0.00000000000E+00 -0.00000000000E+00 -0.13947364883E+02  0.13947365794E+02  0.50400000000E-02 0. -1.
          2    1    1    2    0  502  0.21669975288E+02  0.13320833258E+02  0.22615398633E+02  0.34036578699E+02  0.25500000000E-02 0. -1.
         -2    1    1    2  502    0 -0.21669975288E+02 -0.13320833258E+02  0.11401748128E+02  0.27875299004E+02  0.25500000000E-02 0. -1.
<mgrwt>
<rscale>  0 0.51729241E+02</rscale>
<asrwt>0</asrwt>
<pdfrwt beam="2">  1        1 0.21457485E-02 0.51729241E+02</pdfrwt>
<pdfrwt beam="1">  1       -1 0.73791557E-02 0.51729241E+02</pdfrwt>
<totfact> 0.37766469E+05</totfact>
</mgrwt>
</event>
<event>
 4    1  0.1893769E-002  0.7379620E+02  0.7818608E-02  0.1347640E+00
          1   -1    0    0    0  501  0.00000000000E+00  0.00000000000E+00  0.13866132655E+02  0.13866133571E+02  0.50400000000E-02 0. -1.
         -1   -1    0    0  501    0 -0.00000000000E+00 -0.00000000000E+00 -0.98186700375E+02  0.98186700504E+02  0.50400000000E-02 0. -1.
          2    1    1    2    0  502  0.10917285962E+02 -0.32516155708E+02 -0.21508670862E+02  0.40485928957E+02  0.25500000000E-02 0. -1.
         -2    1    1    2  502    0 -0.10917285962E+02  0.32516155708E+02 -0.62811896858E+02  0.71566905118E+02  0.25500000000E-02 0. -1.
<mgrwt>
<rscale>  0 0.73796202E+02</rscale>
<asrwt>0</asrwt>
<pdfrwt beam="1">  1        1 0.21332513E-02 0.73796202E+02</pdfrwt>
<pdfrwt beam="2">  1       -1 0.15105646E-01 0.73796202E+02</pdfrwt>
<totfact> 0.14036125E+05</totfact>
</mgrwt>
</event>
<event>
 4    1  0.1893769E-002  0.4271529E+02  0.7818608E-02  0.1489130E+00
          1   -1    0    0    0  501  0.00000000000E+00  0.00000000000E+00  0.14565919719E+01  0.14566006914E+01  0.50400000000E-02 0.  1.
         -1   -1    0    0  501    0 -0.00000000000E+00 -0.00000000000E+00 -0.31316094065E+03  0.31316094069E+03  0.50400000000E-02 0.  1.
          2    1    1    2    0  502  0.19237214618E+02 -0.78861644991E+01 -0.19185038739E+03  0.19297365925E+03  0.25500000000E-02 0. -1.
         -2    1    1    2  502    0 -0.19237214618E+02  0.78861644991E+01 -0.11985396129E+03  0.12164388213E+03  0.25500000000E-02 0. -1.
<mgrwt>
<rscale>  0 0.42715294E+02</rscale>
<asrwt>0</asrwt>
<pdfrwt beam="1">  1        1 0.22409200E-03 0.42715294E+02</pdfrwt>
<pdfrwt beam="2">  1       -1 0.48178553E-01 0.42715294E+02</pdfrwt>
<totfact> 0.40599858E+05</totfact>
</mgrwt>
</event>
<event>
 4    1  0.1893769E-002  0.6463058E+02  0.7818608E-02  0.1379367E+00
         -1   -1    0    0  501    0 -0.00000000000E+00  0.00000000000E+00  0.89879196942E+02  0.89879197083E+02  0.50400000000E-02 0.  1.
          1   -1    0    0    0  501  0.00000000000E+00 -0.00000000000E+00 -0.11618684470E+02  0.11618685563E+02  0.50400000000E-02 0.  1.
          2    1    1    2    0  502  0.15513233541E+02 -0.14740159188E+02  0.77157570721E+02  0.80070115736E+02  0.25500000000E-02 0. -1.
         -2    1    1    2  502    0 -0.15513233541E+02  0.14740159188E+02  0.11029417504E+01  0.21427766911E+02  0.25500000000E-02 0. -1.
<mgrwt>
<rscale>  0 0.64630584E+02</rscale>
<asrwt>0</asrwt>
<pdfrwt beam="2">  1        1 0.17874901E-02 0.64630584E+02</pdfrwt>
<pdfrwt beam="1">  1       -1 0.13827568E-01 0.64630584E+02</pdfrwt>
<totfact> 0.19939387E+05</totfact>
</mgrwt>
</event>
<event>
 4    1  0.1893769E-002  0.4601293E+02  0.7818608E-02  0.1468115E+00
         -1   -1    0    0  501    0 -0.00000000000E+00  0.00000000000E+00  0.51370790408E+01  0.51370815131E+01  0.50400000000E-02 0.  1.
          1   -1    0    0    0  501  0.00000000000E+00 -0.00000000000E+00 -0.10303466807E+03  0.10303466819E+03  0.50400000000E-02 0.  1.
          2    1    1    2    0  502 -0.17903686294E+02 -0.11287700118E+02 -0.70151664230E+02  0.73274894456E+02  0.25500000000E-02 0.  1.
         -2    1    1    2  502    0  0.17903686294E+02  0.11287700118E+02 -0.27745924799E+02  0.34896855249E+02  0.25500000000E-02 0.  1.
<mgrwt>
<rscale>  0 0.46012927E+02</rscale>
<asrwt>0</asrwt>
<pdfrwt beam="2">  1        1 0.15851486E-01 0.46012927E+02</pdfrwt>
<pdfrwt beam="1">  1       -1 0.79032013E-03 0.46012927E+02</pdfrwt>
<totfact> 0.62452371E+05</totfact>
</mgrwt>
</event>
<event>
 4    1  0.1893769E-002  0.4785984E+02  0.7818608E-02  0.1457239E+00
          1   -1    0    0    0  501  0.00000000000E+00  0.00000000000E+00  0.36862047094E+02  0.36862047439E+02  0.50400000000E-02 0. -1.
         -1   -1    0    0  501    0 -0.00000000000E+00 -0.00000000000E+00 -0.15534705766E+02  0.15534706583E+02  0.50400000000E-02 0. -1.
          2    1    1    2    0  502 -0.21596838980E+02  0.14186685873E+01  0.21839439875E+02  0.30747312322E+02  0.25500000000E-02 0.  1.
         -2    1    1    2  502    0  0.21596838980E+02 -0.14186685873E+01 -0.51209854711E+00  0.21649441700E+02  0.25500000000E-02 0.  1.
<mgrwt>
<rscale>  0 0.47859841E+02</rscale>
<asrwt>0</asrwt>
<pdfrwt beam="1">  1        1 0.56710843E-02 0.47859841E+02</pdfrwt>
<pdfrwt beam="2">  1       -1 0.23899548E-02 0.47859841E+02</pdfrwt>
<totfact> 0.50667756E+05</totfact>
</mgrwt>
</event>
<event>
 4    1  0.1893769E-002  0.6759673E+02  0.7818608E-02  0.1368462E+00
          1   -1    0    0    0  501  0.00000000000E+00  0.00000000000E+00  0.74767525618E+03  0.74767525620E+03  0.50400000000E-02 0.  1.
         -1   -1    0    0  501    0 -0.00000000000E+00 -0.00000000000E+00 -0.15278375838E+01  0.15278458967E+01  0.50400000000E-02 0.  1.
          2    1    1    2    0  502  0.32635837679E+02  0.21794993138E+00  0.47044652093E+03  0.47157722004E+03  0.25500000000E-02 0. -1.
         -2    1    1    2  502    0 -0.32635837679E+02 -0.21794993138E+00  0.27570089767E+03  0.27762588206E+03  0.25500000000E-02 0. -1.
<mgrwt>
<rscale>  0 0.67596730E+02</rscale>
<asrwt>0</asrwt>
<pdfrwt beam="1">  1        1 0.11502692E+00 0.67596730E+02</pdfrwt>
<pdfrwt beam="2">  1       -1 0.23505266E-03 0.67596730E+02</pdfrwt>
<totfact> 0.30947591E+05</totfact>
</mgrwt>
</event>
<event>
 4    1  0.1893769E-002  0.9025951E+02  0.7818608E-02  0.1302224E+00
         -1   -1    0    0  501    0 -0.00000000000E+00  0.00000000000E+00  0.26676985770E+03  0.26676985775E+03  0.50400000000E-02 0.  1.
          1   -1    0    0    0  501  0.00000000000E+00 -0.00000000000E+00 -0.76346500331E+01  0.76346516966E+01  0.50400000000E-02 0.  1.
          2    1    1    2    0  502 -0.20308822043E+02  0.39852746219E+02  0.11132527534E+03  0.11997502478E+03  0.25500000000E-02 0.  1.
         -2    1    1    2  502    0  0.20308822043E+02 -0.39852746219E+02  0.14780993233E+03  0.15442948467E+03  0.25500000000E-02 0.  1.
<mgrwt>
<rscale>  0 0.90259509E+02</rscale>
<asrwt>0</asrwt>
<pdfrwt beam="2">  1        1 0.11745615E-02 0.90259509E+02</pdfrwt>
<pdfrwt beam="1">  1       -1 0.41041522E-01 0.90259509E+02</pdfrwt>
<totfact> 0.65010145E+04</totfact>
</mgrwt>
</event>
<event>
 4    1  0.1893769E-002  0.8520360E+02  0.7818608E-02  0.1314901E+00
         -1   -1    0    0  501    0 -0.00000000000E+00  0.00000000000E+00  0.40259624778E+02  0.40259625094E+02  0.50400000000E-02 0.  1.
          1   -1    0    0    0  501  0.00000000000E+00 -0.00000000000E+00 -0.45080236245E+02  0.45080236527E+02  0.50400000000E-02 0.  1.
          2    1    1    2    0  502  0.10365704247E+02 -0.18292817372E+02  0.34700782988E+02  0.40573628608E+02  0.25500000000E-02 0.  1.
         -2    1    1    2  502    0 -0.10365704247E+02  0.18292817372E+02 -0.39521394455E+02  0.44766233012E+02  0.25500000000E-02 0.  1.
<mgrwt>
<rscale>  0 0.85203601E+02</rscale>
<asrwt>0</asrwt>
<pdfrwt beam="2">  1        1 0.69354210E-02 0.85203601E+02</pdfrwt>
<pdfrwt beam="1">  1       -1 0.61937885E-02 0.85203601E+02</pdfrwt>
<totfact> 0.11153226E+05</totfact>
</mgrwt>
</event>
<event>
 4    1  0.1893769E-002  0.4920417E+02  0.7818608E-02  0.1449682E+00
         -1   -1    0    0  501    0 -0.00000000000E+00  0.00000000000E+00  0.36466860668E+01  0.36466895496E+01  0.50400000000E-02 0.  1.
          1   -1    0    0    0  501  0.00000000000E+00 -0.00000000000E+00 -0.16597600560E+03  0.16597600568E+03  0.50400000000E-02 0.  1.
          2    1    1    2    0  502  0.77095281751E+01 -0.18565166735E+02 -0.13005840475E+03  0.13160277692E+03  0.25500000000E-02 0.  1.
         -2    1    1    2  502    0 -0.77095281751E+01  0.18565166735E+02 -0.32270914789E+02  0.38019918311E+02  0.25500000000E-02 0.  1.
<mgrwt>
<rscale>  0 0.49204174E+02</rscale>
<asrwt>0</asrwt>
<pdfrwt beam="2">  1        1 0.25534764E-01 0.49204174E+02</pdfrwt>
<pdfrwt beam="1">  1       -1 0.56102903E-03 0.49204174E+02</pdfrwt>
<totfact> 0.56698152E+05</totfact>
</mgrwt>
</event>
<event>
 4    1  0.1893769E-002  0.7098962E+02  0.7818608E-02  0.1356760E+00
          1   -1    0    0    0  501  0.00000000000E+00  0.00000000000E+00  0.13439849760E+02  0.13439850705E+02  0.50400000000E-02 0. -1.
         -1   -1    0    0  501    0 -0.00000000000E+00 -0.00000000000E+00 -0.93742219716E+02  0.93742219851E+02  0.50400000000E-02 0. -1.
          2    1    1    2    0  502 -0.56885609892E+01 -0.30715282880E+02 -0.65599418127E+02  0.72657222584E+02  0.25500000000E-02 0. -1.
         -2    1    1    2  502    0  0.56885609892E+01  0.30715282880E+02 -0.14702951828E+02  0.34524847972E+02  0.25500000000E-02 0. -1.
<mgrwt>
<rscale>  0 0.70989616E+02</rscale>
<asrwt>0</asrwt>
<pdfrwt beam="1">  1        1 0.20676693E-02 0.70989616E+02</pdfrwt>
<pdfrwt beam="2">  1       -1 0.14421880E-01 0.70989616E+02</pdfrwt>
<totfact> 0.15613481E+05</totfact>
</mgrwt>
</event>
<event>
 4    1  0.1893769E-002  0.5519305E+02  0.7818608E-02  0.1419188E+00
          1   -1    0    0    0  501  0.00000000000E+00  0.00000000000E+00  0.90012344803E+02  0.90012344945E+02  0.50400000000E-02 0.  1.
         -1   -1    0    0  501    0 -0.00000000000E+00 -0.00000000000E+00 -0.84607065403E+01  0.84607080414E+01  0.50400000000E-02 0.  1.
          2    1    1    2    0  502 -0.89971119342E+01 -0.25415202267E+02  0.51283818238E+02  0.57938851809E+02  0.25500000000E-02 0. -1.
         -2    1    1    2  502    0  0.89971119342E+01  0.25415202267E+02  0.30267820026E+02  0.40534201177E+02  0.25500000000E-02 0. -1.
<mgrwt>
<rscale>  0 0.55193047E+02</rscale>
<asrwt>0</asrwt>
<pdfrwt beam="1">  1        1 0.13848052E-01 0.55193047E+02</pdfrwt>
<pdfrwt beam="2">  1       -1 0.13016474E-02 0.55193047E+02</pdfrwt>
<totfact> 0.38729789E+05</totfact>
</mgrwt>
</event>
<event>
 4    1  0.1893769E-002  0.7789446E+02  0.7818608E-02  0.1335135E+00
         -1   -1    0    0  501    0 -0.00000000000E+00  0.00000000000E+00  0.25709062020E+03  0.25709062025E+03  0.50400000000E-02 0.  1.
          1   -1    0    0    0  501  0.00000000000E+00 -0.00000000000E+00 -0.59002019262E+01  0.59002040789E+01  0.50400000000E-02 0.  1.
          2    1    1    2    0  502  0.19804331402E+02 -0.11263964769E+02  0.18946547501E+02  0.29632079126E+02  0.25500000000E-02 0.  1.
         -2    1    1    2  502    0 -0.19804331402E+02  0.11263964769E+02  0.23224387077E+03  0.23335874520E+03  0.25500000000E-02 0.  1.
<mgrwt>
<rscale>  0 0.77894464E+02</rscale>
<asrwt>0</asrwt>
<pdfrwt beam="2">  1        1 0.90772325E-03 0.77894464E+02</pdfrwt>
<pdfrwt beam="1">  1       -1 0.39552416E-01 0.77894464E+02</pdfrwt>
<totfact> 0.96551372E+04</totfact>
</mgrwt>
</event>
<event>
 4    1  0.1893769E-002  0.4316080E+02  0.7818608E-02  0.1486161E+00
         -1   -1    0    0  501    0 -0.00000000000E+00  0.00000000000E+00  0.49232267761E+00  0.49234847464E+00  0.50400000000E-02 0. -1.
          1   -1    0    0    0  501  0.00000000000E+00 -0.00000000000E+00 -0.94592745512E+03  0.94592745514E+03  0.50400000000E-02 0. -1.
          2    1    1    2    0  502 -0.15284238215E+02 -0.13541522065E+02 -0.62579310937E+03  0.62612618257E+03  0.25500000000E-02 0.  1.
         -2    1    1    2  502    0  0.15284238215E+02  0.13541522065E+02 -0.31964202308E+03  0.32029362104E+03  0.25500000000E-02 0.  1.
<mgrwt>
<rscale>  0 0.43160804E+02</rscale>
<asrwt>0</asrwt>
<pdfrwt beam="2">  1        1 0.14552585E+00 0.43160804E+02</pdfrwt>
<pdfrwt beam="1">  1       -1 0.75744693E-04 0.43160804E+02</pdfrwt>
<totfact> 0.92339687E+05</totfact>
</mgrwt>
</event>
<event>
 4    1  0.1893769E-002  0.6658582E+02  0.7818608E-02  0.1372104E+00
          1   -1    0    0    0  501  0.00000000000E+00  0.00000000000E+00  0.10048787331E+03  0.10048787344E+03  0.50400000000E-02 0.  1.
         -1   -1    0    0  501    0 -0.00000000000E+00 -0.00000000000E+00 -0.11030362513E+02  0.11030363664E+02  0.50400000000E-02 0.  1.
          2    1    1    2    0  502  0.28558266342E+02 -0.67949955999E+01  0.18424659257E+02  0.34658543202E+02  0.25500000000E-02 0. -1.
         -2    1    1    2  502    0 -0.28558266342E+02  0.67949955999E+01  0.71032851544E+02  0.76859693902E+02  0.25500000000E-02 0. -1.
<mgrwt>
<rscale>  0 0.66585817E+02</rscale>
<asrwt>0</asrwt>
<pdfrwt beam="1">  1        1 0.15459672E-01 0.66585817E+02</pdfrwt>
<pdfrwt beam="2">  1       -1 0.16969790E-02 0.66585817E+02</pdfrwt>
<totfact> 0.24194360E+05</totfact>
</mgrwt>
</event>
<event>
 4    1  0.1893769E-002  0.4915263E+02  0.7818608E-02  0.1449966E+00
          1   -1    0    0    0  501  0.00000000000E+00  0.00000000000E+00  0.10491618859E+02  0.10491620070E+02  0.50400000000E-02 0. -1.
         -1   -1    0    0  501    0 -0.00000000000E+00 -0.00000000000E+00 -0.57569301445E+02  0.57569301666E+02  0.50400000000E-02 0. -1.
          2    1    1    2    0  502 -0.94317088077E+01 -0.18250604768E+02 -0.48608015843E+01  0.21110876438E+02  0.25500000000E-02 0. -1.
         -2    1    1    2  502    0  0.94317088077E+01  0.18250604768E+02 -0.42216881002E+02  0.46950045298E+02  0.25500000000E-02 0. -1.
<mgrwt>
<rscale>  0 0.49152628E+02</rscale>
<asrwt>0</asrwt>
<pdfrwt beam="1">  1        1 0.16140954E-02 0.49152628E+02</pdfrwt>
<pdfrwt beam="2">  1       -1 0.88568155E-02 0.49152628E+02</pdfrwt>
<totfact> 0.41940161E+05</totfact>
</mgrwt>
</event>
<event>
 4    1  0.1893769E-002  0.4399155E+02  0.7818608E-02  0.1480737E+00
          1   -1    0    0    0  501  0.00000000000E+00  0.00000000000E+00  0.58762738768E+02  0.58762738984E+02  0.50400000000E-02 0.  1.
         -1   -1    0    0  501    0 -0.00000000000E+00 -0.00000000000E+00 -0.82333466098E+01  0.82333481524E+01  0.50400000000E-02 0.  1.
          2    1    1    2    0  502 -0.19078333524E+02 -0.10819115656E+02  0.27803004285E+02  0.35412471354E+02  0.25500000000E-02 0.  1.
         -2    1    1    2  502    0  0.19078333524E+02  0.10819115656E+02  0.22726387873E+02  0.31583615782E+02  0.25500000000E-02 0.  1.
<mgrwt>
<rscale>  0 0.43991547E+02</rscale>
<asrwt>0</asrwt>
<pdfrwt beam="1">  1        1 0.90404215E-02 0.43991547E+02</pdfrwt>
<pdfrwt beam="2">  1       -1 0.12666688E-02 0.43991547E+02</pdfrwt>
<totfact> 0.65482474E+05</totfact>
</mgrwt>
</event>
<event>
 4    1  0.1893769E-002  0.4487206E+02  0.7818608E-02  0.1475142E+00
         -1   -1    0    0  501    0 -0.00000000000E+00  0.00000000000E+00  0.32982062891E+00  0.32985913487E+00  0.50400000000E-02 0.  1.
          1   -1    0    0    0  501  0.00000000000E+00 -0.00000000000E+00 -0.15261207516E+04  0.15261207516E+04  0.50400000000E-02 0.  1.
          2    1    1    2    0  502  0.20505236099E+02 -0.72354031534E+01 -0.95094898622E+03  0.95119755580E+03  0.25500000000E-02 0. -1.
         -2    1    1    2  502    0 -0.20505236099E+02  0.72354031534E+01 -0.57484194470E+03  0.57525305489E+03  0.25500000000E-02 0. -1.
<mgrwt>
<rscale>  0 0.44872063E+02</rscale>
<asrwt>0</asrwt>
<pdfrwt beam="2">  1        1 0.23478216E+00 0.44872063E+02</pdfrwt>
<pdfrwt beam="1">  1       -1 0.50745820E-04 0.44872063E+02</pdfrwt>
<totfact> 0.66786732E+05</totfact>
</mgrwt>
</event>
<event>
 4    1  0.1893769E-002  0.4915788E+02  0.7818608E-02  0.1449937E+00
         -1   -1    0    0  501    0 -0.00000000000E+00  0.00000000000E+00  0.46322891821E+02  0.46322892096E+02  0.50400000000E-02 0.  1.
          1   -1    0    0    0  501  0.00000000000E+00 -0.00000000000E+00 -0.13041594372E+02  0.13041595346E+02  0.50400000000E-02 0.  1.
          2    1    1    2    0  502 -0.69317517553E+01  0.23532764322E+02  0.18465814014E+02  0.30705479522E+02  0.25500000000E-02 0.  1.
         -2    1    1    2  502    0  0.69317517553E+01 -0.23532764322E+02  0.14815483435E+02  0.28659007920E+02  0.25500000000E-02 0.  1.
<mgrwt>
<rscale>  0 0.49157885E+02</rscale>
<asrwt>0</asrwt>
<pdfrwt beam="2">  1        1 0.20063992E-02 0.49157885E+02</pdfrwt>
<pdfrwt beam="1">  1       -1 0.71265988E-02 0.49157885E+02</pdfrwt>
<totfact> 0.42962295E+05</totfact>
</mgrwt>
</event>
<event>
 4    1  0.1893769E-002  0.4177981E+02  0.7818608E-02  0.1495508E+00
         -1   -1    0    0  501    0 -0.00000000000E+00  0.00000000000E+00  0.42721773667E+02  0.42721773964E+02  0.50400000000E-02 0. -1.
          1   -1    0    0    0  501  0.00000000000E+00 -0.00000000000E+00 -0.10214653272E+02  0.10214654516E+02  0.50400000000E-02 0. -1.
          2    1    1    2    0  502  0.87091821164E+01  0.18974277690E+02  0.15344228488E+02  0.25909813225E+02  0.25500000000E-02 0. -1.
         -2    1    1    2  502    0 -0.87091821164E+01 -0.18974277690E+02  0.17162891907E+02  0.27026615254E+02  0.25500000000E-02 0. -1.
<mgrwt>
<rscale>  0 0.41779811E+02</rscale>
<asrwt>0</asrwt>
<pdfrwt beam="2">  1        1 0.15714853E-02 0.41779811E+02</pdfrwt>
<pdfrwt beam="1">  1       -1 0.65725805E-02 0.41779811E+02</pdfrwt>
<totfact> 0.64355061E+05</totfact>
</mgrwt>
</event>
<event>
 4    1  0.1893769E-002  0.4167863E+02  0.7818608E-02  0.1496210E+00
          1   -1    0    0    0  501  0.00000000000E+00  0.00000000000E+00  0.63383809723E+01  0.63383829761E+01  0.50400000000E-02 0.  1.
         -1   -1    0    0  501    0 -0.00000000000E+00 -0.00000000000E+00 -0.68515452968E+02  0.68515453153E+02  0.50400000000E-02 0.  1.
          2    1    1    2    0  502  0.27506227547E+01  0.20627444255E+02 -0.29105029370E+02  0.35779325359E+02  0.25500000000E-02 0.  1.
         -2    1    1    2  502    0 -0.27506227547E+01 -0.20627444255E+02 -0.33072042625E+02  0.39074510770E+02  0.25500000000E-02 0.  1.
<mgrwt>
<rscale>  0 0.41678634E+02</rscale>
<asrwt>0</asrwt>
<pdfrwt beam="1">  1        1 0.97513576E-03 0.41678634E+02</pdfrwt>
<pdfrwt beam="2">  1       -1 0.10540839E-01 0.41678634E+02</pdfrwt>
<totfact> 0.61422385E+05</totfact>
</mgrwt>
</event>
<event>
 4    1  0.1893769E-002  0.4590319E+02  0.7818608E-02  0.1468781E+00
          1   -1    0    0    0  501  0.00000000000E+00  0.00000000000E+00  0.55135638032E+03  0.55135638034E+03  0.50400000000E-02 0.  1.
         -1   -1    0    0  501    0 -0.00000000000E+00 -0.00000000000E+00 -0.95541134535E+00  0.95542463880E+00  0.50400000000E-02 0.  1.
          2    1    1    2    0  502  0.74165257576E+01 -0.18623486992E+02  0.14071159339E+03  0.14213230331E+03  0.25500000000E-02 0.  1.
         -2    1    1    2  502    0 -0.74165257576E+01  0.18623486992E+02  0.40968937558E+03  0.41017950167E+03  0.25500000000E-02 0.  1.
<mgrwt>
<rscale>  0 0.45903195E+02</rscale>
<asrwt>0</asrwt>
<pdfrwt beam="1">  1        1 0.84824109E-01 0.45903195E+02</pdfrwt>
<pdfrwt beam="2">  1       -1 0.14698730E-03 0.45903195E+02</pdfrwt>
<totfact> 0.81224226E+05</totfact>
</mgrwt>
</event>
<event>
 4    1  0.1893769E-002  0.6945484E+02  0.7818608E-02  0.1361957E+00
          1   -1    0    0    0  501  0.00000000000E+00  0.00000000000E+00  0.13716440999E+04  0.13716440999E+04  0.50400000000E-02 0. -1.
         -1   -1    0    0  501    0 -0.00000000000E+00 -0.00000000000E+00 -0.87922489958E+00  0.87923934491E+00  0.50400000000E-02 0. -1.
          2    1    1    2    0  502 -0.26220698919E+01 -0.31060682800E+02  0.38286399874E+03  0.38413081470E+03  0.25500000000E-02 0.  1.
         -2    1    1    2  502    0  0.26220698919E+01  0.31060682800E+02  0.98790087625E+03  0.98839252454E+03  0.25500000000E-02 0.  1.
<mgrwt>
<rscale>  0 0.69454836E+02</rscale>
<asrwt>0</asrwt>
<pdfrwt beam="1">  1        1 0.21102169E+00 0.69454836E+02</pdfrwt>
<pdfrwt beam="2">  1       -1 0.13526679E-03 0.69454836E+02</pdfrwt>
<totfact> 0.24031820E+05</totfact>
</mgrwt>
</event>
<event>
 4    1  0.1893769E-002  0.4883342E+02  0.7818608E-02  0.1451737E+00
          1   -1    0    0    0  501  0.00000000000E+00  0.00000000000E+00  0.14146167186E+04  0.14146167186E+04  0.50400000000E-02 0. -1.
         -1   -1    0    0  501    0 -0.00000000000E+00 -0.00000000000E+00 -0.42142460948E+00  0.42145474618E+00  0.50400000000E-02 0. -1.
          2    1    1    2    0  502  0.87695514940E+01 -0.22780279943E+02  0.69046603488E+03  0.69089738132E+03  0.25500000000E-02 0. -1.
         -2    1    1    2  502    0 -0.87695514940E+01  0.22780279943E+02  0.72372925906E+03  0.72414079199E+03  0.25500000000E-02 0. -1.
<mgrwt>
<rscale>  0 0.48833416E+02</rscale>
<asrwt>0</asrwt>
<pdfrwt beam="1">  1        1 0.21763247E+00 0.48833416E+02</pdfrwt>
<pdfrwt beam="2">  1       -1 0.64837134E-04 0.48833416E+02</pdfrwt>
<totfact> 0.57384499E+05</totfact>
</mgrwt>
</event>
<event>
 4    1  0.1893769E-002  0.6040858E+02  0.7818608E-02  0.1396125E+00
          1   -1    0    0    0  501  0.00000000000E+00  0.00000000000E+00  0.20481571996E+03  0.20481572003E+03  0.50400000000E-02 0. -1.
         -1   -1    0    0  501    0 -0.00000000000E+00 -0.00000000000E+00 -0.44542427118E+01  0.44542455632E+01  0.50400000000E-02 0. -1.
          2    1    1    2    0  502 -0.22718099136E+02 -0.15434893652E+02  0.56642606391E+02  0.62950240950E+02  0.25500000000E-02 0. -1.
         -2    1    1    2  502    0  0.22718099136E+02  0.15434893652E+02  0.14371887086E+03  0.14631972464E+03  0.25500000000E-02 0. -1.
<mgrwt>
<rscale>  0 0.60408583E+02</rscale>
<asrwt>0</asrwt>
<pdfrwt beam="1">  1        1 0.31510108E-01 0.60408583E+02</pdfrwt>
<pdfrwt beam="2">  1       -1 0.68526840E-03 0.60408583E+02</pdfrwt>
<totfact> 0.34969415E+05</totfact>
</mgrwt>
</event>
<event>
 4    1  0.1893769E-002  0.4014265E+02  0.7818608E-02  0.1507164E+00
          1   -1    0    0    0  501  0.00000000000E+00  0.00000000000E+00  0.53213501902E+03  0.53213501904E+03  0.50400000000E-02 0.  1.
         -1   -1    0    0  501    0 -0.00000000000E+00 -0.00000000000E+00 -0.75705143554E+00  0.75706821202E+00  0.50400000000E-02 0.  1.
          2    1    1    2    0  502  0.47847355710E+00  0.20029066914E+02  0.24961810129E+03  0.25042082373E+03  0.25500000000E-02 0. -1.
         -2    1    1    2  502    0 -0.47847355710E+00 -0.20029066914E+02  0.28175986629E+03  0.28247126353E+03  0.25500000000E-02 0. -1.
<mgrwt>
<rscale>  0 0.40142648E+02</rscale>
<asrwt>0</asrwt>
<pdfrwt beam="1">  1        1 0.81867069E-01 0.40142648E+02</pdfrwt>
<pdfrwt beam="2">  1       -1 0.11647054E-03 0.40142648E+02</pdfrwt>
<totfact> 0.11226731E+06</totfact>
</mgrwt>
</event>
<event>
 4    1  0.1893769E-002  0.7812313E+02  0.7818608E-02  0.1334464E+00
          1   -1    0    0    0  501  0.00000000000E+00  0.00000000000E+00  0.19063996828E+03  0.19063996834E+03  0.50400000000E-02 0. -1.
         -1   -1    0    0  501    0 -0.00000000000E+00 -0.00000000000E+00 -0.80035982966E+01  0.80035998835E+01  0.50400000000E-02 0. -1.
          2    1    1    2    0  502  0.11397276199E+02 -0.34089137716E+02  0.13020058225E+03  0.13507094002E+03  0.25500000000E-02 0. -1.
         -2    1    1    2  502    0 -0.11397276199E+02  0.34089137716E+02  0.52435787736E+02  0.63572628206E+02  0.25500000000E-02 0. -1.
<mgrwt>
<rscale>  0 0.78123131E+02</rscale>
<asrwt>0</asrwt>
<pdfrwt beam="1">  1        1 0.29329222E-01 0.78123131E+02</pdfrwt>
<pdfrwt beam="2">  1       -1 0.12313231E-02 0.78123131E+02</pdfrwt>
<totfact> 0.17695646E+05</totfact>
</mgrwt>
</event>
<event>
 4    1  0.1893769E-002  0.1906602E+03  0.7818608E-02  0.1157867E+00
          1   -1    0    0    0  501  0.00000000000E+00  0.00000000000E+00  0.19395414255E+03  0.19395414262E+03  0.50400000000E-02 0. -1.
         -1   -1    0    0  501    0 -0.00000000000E+00 -0.00000000000E+00 -0.46855545537E+02  0.46855545808E+02  0.50400000000E-02 0. -1.
          2    1    1    2    0  502 -0.97962944690E+01 -0.67515953941E+02 -0.10548595437E+02  0.69033646102E+02  0.25500000000E-02 0.  1.
         -2    1    1    2  502    0  0.97962944690E+01  0.67515953941E+02  0.15764719245E+03  0.17177604232E+03  0.25500000000E-02 0.  1.
<mgrwt>
<rscale>  0 0.19066019E+03</rscale>
<asrwt>0</asrwt>
<pdfrwt beam="1">  1        1 0.29839098E-01 0.19066019E+03</pdfrwt>
<pdfrwt beam="2">  1       -1 0.72085456E-02 0.19066019E+03</pdfrwt>
<totfact> 0.14828957E+04</totfact>
</mgrwt>
</event>
<event>
 4    1  0.1893769E-002  0.6280686E+02  0.7818608E-02  0.1386416E+00
         -1   -1    0    0  501    0 -0.00000000000E+00  0.00000000000E+00  0.26922015413E+02  0.26922015885E+02  0.50400000000E-02 0. -1.
          1   -1    0    0    0  501  0.00000000000E+00 -0.00000000000E+00 -0.36630817748E+02  0.36630818095E+02  0.50400000000E-02 0. -1.
          2    1    1    2    0  502  0.22433872156E+01 -0.30042158806E+02  0.41172112782E+01  0.30405846924E+02  0.25500000000E-02 0. -1.
         -2    1    1    2  502    0 -0.22433872156E+01  0.30042158806E+02 -0.13826013613E+02  0.33146987056E+02  0.25500000000E-02 0. -1.
<mgrwt>
<rscale>  0 0.62806862E+02</rscale>
<asrwt>0</asrwt>
<pdfrwt beam="2">  1        1 0.56355105E-02 0.62806862E+02</pdfrwt>
<pdfrwt beam="1">  1       -1 0.41418486E-02 0.62806862E+02</pdfrwt>
<totfact> 0.24918105E+05</totfact>
</mgrwt>
</event>
<event>
 4    1  0.1893769E-002  0.9195257E+02  0.7818608E-02  0.1298191E+00
         -1   -1    0    0  501    0 -0.00000000000E+00  0.00000000000E+00  0.63507351210E+02  0.63507351410E+02  0.50400000000E-02 0.  1.
          1   -1    0    0    0  501  0.00000000000E+00 -0.00000000000E+00 -0.33284629031E+02  0.33284629412E+02  0.50400000000E-02 0.  1.
          2    1    1    2    0  502 -0.20987348297E+01  0.45165777018E+02  0.23884668993E+02  0.51135403791E+02  0.25500000000E-02 0.  1.
         -2    1    1    2  502    0  0.20987348297E+01 -0.45165777018E+02  0.63380531864E+01  0.45656577031E+02  0.25500000000E-02 0.  1.
<mgrwt>
<rscale>  0 0.91952567E+02</rscale>
<asrwt>0</asrwt>
<pdfrwt beam="2">  1        1 0.51207122E-02 0.91952567E+02</pdfrwt>
<pdfrwt beam="1">  1       -1 0.97703617E-02 0.91952567E+02</pdfrwt>
<totfact> 0.86020833E+04</totfact>
</mgrwt>
</event>
<event>
 4    1  0.1893769E-002  0.5639373E+02  0.7818608E-02  0.1413620E+00
         -1   -1    0    0  501    0 -0.00000000000E+00  0.00000000000E+00  0.11878696287E+01  0.11878803207E+01  0.50400000000E-02 0. -1.
          1   -1    0    0    0  501  0.00000000000E+00 -0.00000000000E+00 -0.66931553487E+03  0.66931553489E+03  0.50400000000E-02 0. -1.
          2    1    1    2    0  502 -0.10639251255E+02 -0.21318685212E+02 -0.51335105466E+03  0.51390367320E+03  0.25500000000E-02 0.  1.
         -2    1    1    2  502    0  0.10639251255E+02  0.21318685212E+02 -0.15477661058E+03  0.15659974201E+03  0.25500000000E-02 0.  1.
<mgrwt>
<rscale>  0 0.56393730E+02</rscale>
<asrwt>0</asrwt>
<pdfrwt beam="2">  1        1 0.10297132E+00 0.56393730E+02</pdfrwt>
<pdfrwt beam="1">  1       -1 0.18275053E-03 0.56393730E+02</pdfrwt>
<totfact> 0.49136751E+05</totfact>
</mgrwt>
</event>
<event>
 4    1  0.1893769E-002  0.4983313E+02  0.7818608E-02  0.1446244E+00
          1   -1    0    0    0  501  0.00000000000E+00  0.00000000000E+00  0.12183158570E+04  0.12183158570E+04  0.50400000000E-02 0. -1.
         -1   -1    0    0  501    0 -0.00000000000E+00 -0.00000000000E+00 -0.50957230362E+00  0.50959722744E+00  0.50400000000E-02 0. -1.
          2    1    1    2    0  502  0.20593093559E+02  0.22777408561E+01  0.27037957156E+03  0.27117222632E+03  0.25500000000E-02 0. -1.
         -2    1    1    2  502    0 -0.20593093559E+02 -0.22777408561E+01  0.94742671312E+03  0.94765322790E+03  0.25500000000E-02 0. -1.
<mgrwt>
<rscale>  0 0.49833130E+02</rscale>
<asrwt>0</asrwt>
<pdfrwt beam="1">  1        1 0.18743473E+00 0.49833130E+02</pdfrwt>
<pdfrwt beam="2">  1       -1 0.78397022E-04 0.49833130E+02</pdfrwt>
<totfact> 0.59542147E+05</totfact>
</mgrwt>
</event>
<event>
 4    1  0.1893769E-002  0.7672649E+02  0.7818608E-02  0.1338606E+00
         -1   -1    0    0  501    0 -0.00000000000E+00  0.00000000000E+00  0.14294364699E+01  0.14294453551E+01  0.50400000000E-02 0.  1.
          1   -1    0    0    0  501  0.00000000000E+00 -0.00000000000E+00 -0.10295903862E+04  0.10295903862E+04  0.50400000000E-02 0.  1.
          2    1    1    2    0  502 -0.99520532550E+01  0.35653567271E+02 -0.37868814266E+03  0.38049300863E+03  0.25500000000E-02 0. -1.
         -2    1    1    2  502    0  0.99520532550E+01 -0.35653567271E+02 -0.64947280704E+03  0.65052682290E+03  0.25500000000E-02 0. -1.
<mgrwt>
<rscale>  0 0.76726492E+02</rscale>
<asrwt>0</asrwt>
<pdfrwt beam="2">  1        1 0.15839793E+00 0.76726492E+02</pdfrwt>
<pdfrwt beam="1">  1       -1 0.21991481E-03 0.76726492E+02</pdfrwt>
<totfact> 0.21207514E+05</totfact>
</mgrwt>
</event>
<event>
 4    1  0.1893769E-002  0.5874478E+02  0.7818608E-02  0.1403176E+00
          1   -1    0    0    0  501  0.00000000000E+00  0.00000000000E+00  0.10848577668E+02  0.10848578838E+02  0.50400000000E-02 0.  1.
         -1   -1    0    0  501    0 -0.00000000000E+00 -0.00000000000E+00 -0.79525390297E+02  0.79525390457E+02  0.50400000000E-02 0.  1.
          2    1    1    2    0  502 -0.27592427476E+02 -0.30015905671E+01 -0.49125292009E+02  0.56423806335E+02  0.25500000000E-02 0. -1.
         -2    1    1    2  502    0  0.27592427476E+02  0.30015905671E+01 -0.19551520621E+02  0.33950162960E+02  0.25500000000E-02 0. -1.
<mgrwt>
<rscale>  0 0.58744785E+02</rscale>
<asrwt>0</asrwt>
<pdfrwt beam="1">  1        1 0.16690121E-02 0.58744785E+02</pdfrwt>
<pdfrwt beam="2">  1       -1 0.12234675E-01 0.58744785E+02</pdfrwt>
<totfact> 0.25826386E+05</totfact>
</mgrwt>
</event>
<event>
 4    1  0.1893769E-002  0.7185810E+02  0.7818608E-02  0.1353886E+00
          1   -1    0    0    0  501  0.00000000000E+00  0.00000000000E+00  0.45697823740E+02  0.45697824018E+02  0.50400000000E-02 0. -1.
         -1   -1    0    0  501    0 -0.00000000000E+00 -0.00000000000E+00 -0.28248536658E+02  0.28248537107E+02  0.50400000000E-02 0. -1.
          2    1    1    2    0  502 -0.12982854049E+02 -0.28460674829E+02 -0.94618688046E+01  0.32681668849E+02  0.25500000000E-02 0.  1.
         -2    1    1    2  502    0  0.12982854049E+02  0.28460674829E+02  0.26911155887E+02  0.41264692276E+02  0.25500000000E-02 0.  1.
<mgrwt>
<rscale>  0 0.71858101E+02</rscale>
<asrwt>0</asrwt>
<pdfrwt beam="1">  1        1 0.70304344E-02 0.71858101E+02</pdfrwt>
<pdfrwt beam="2">  1       -1 0.43459288E-02 0.71858101E+02</pdfrwt>
<totfact> 0.17814418E+05</totfact>
</mgrwt>
</event>
<event>
 4    1  0.1893769E-002  0.1366026E+03  0.7818608E-02  0.1217975E+00
          1   -1    0    0    0  501  0.00000000000E+00  0.00000000000E+00  0.94844350427E+02  0.94844350561E+02  0.50400000000E-02 0.  1.
         -1   -1    0    0  501    0 -0.00000000000E+00 -0.00000000000E+00 -0.49186576769E+02  0.49186577028E+02  0.50400000000E-02 0.  1.
          2    1    1    2    0  502  0.21780093802E+02  0.59116009057E+02  0.50645192818E+02  0.80833226924E+02  0.25500000000E-02 0. -1.
         -2    1    1    2  502    0 -0.21780093802E+02 -0.59116009057E+02 -0.49874191609E+01  0.63197700664E+02  0.25500000000E-02 0. -1.
<mgrwt>
<rscale>  0 0.13660262E+03</rscale>
<asrwt>0</asrwt>
<pdfrwt beam="1">  1        1 0.14591439E-01 0.13660262E+03</pdfrwt>
<pdfrwt beam="2">  1       -1 0.75671657E-02 0.13660262E+03</pdfrwt>
<totfact> 0.33237193E+04</totfact>
</mgrwt>
</event>
<event>
 4    1  0.1893769E-002  0.4927110E+02  0.7818608E-02  0.1449313E+00
         -1   -1    0    0  501    0 -0.00000000000E+00  0.00000000000E+00  0.19640527582E+03  0.19640527588E+03  0.50400000000E-02 0. -1.
          1   -1    0    0    0  501  0.00000000000E+00 -0.00000000000E+00 -0.30900898427E+01  0.30900939528E+01  0.50400000000E-02 0. -1.
          2    1    1    2    0  502  0.21681824288E+02 -0.96490985265E+01  0.69890580349E+02  0.73809889818E+02  0.25500000000E-02 0. -1.
         -2    1    1    2  502    0 -0.21681824288E+02  0.96490985265E+01  0.12342460562E+03  0.12568548002E+03  0.25500000000E-02 0. -1.
<mgrwt>
<rscale>  0 0.49271102E+02</rscale>
<asrwt>0</asrwt>
<pdfrwt beam="2">  1        1 0.47539871E-03 0.49271102E+02</pdfrwt>
<pdfrwt beam="1">  1       -1 0.30216200E-01 0.49271102E+02</pdfrwt>
<totfact> 0.33410111E+05</totfact>
</mgrwt>
</event>
<event>
 4    1  0.1893769E-002  0.5069432E+02  0.7818608E-02  0.1441632E+00
          1   -1    0    0    0  501  0.00000000000E+00  0.00000000000E+00  0.34838821282E+03  0.34838821286E+03  0.50400000000E-02 0.  1.
         -1   -1    0    0  501    0 -0.00000000000E+00 -0.00000000000E+00 -0.18441416410E+01  0.18441485281E+01  0.50400000000E-02 0.  1.
          2    1    1    2    0  502 -0.20704580219E+02 -0.97707852023E+01  0.98119193388E+02  0.10075477161E+03  0.25500000000E-02 0.  1.
         -2    1    1    2  502    0  0.20704580219E+02  0.97707852023E+01  0.24842487779E+03  0.24947758977E+03  0.25500000000E-02 0.  1.
<mgrwt>
<rscale>  0 0.50694316E+02</rscale>
<asrwt>0</asrwt>
<pdfrwt beam="1">  1        1 0.53598181E-01 0.50694316E+02</pdfrwt>
<pdfrwt beam="2">  1       -1 0.28371467E-03 0.50694316E+02</pdfrwt>
<totfact> 0.59820475E+05</totfact>
</mgrwt>
</event>
<event>
 4    1  0.1893769E-002  0.5900096E+02  0.7818608E-02  0.1402073E+00
         -1   -1    0    0  501    0 -0.00000000000E+00  0.00000000000E+00  0.21832468393E+04  0.21832468393E+04  0.50400000000E-02 0.  1.
          1   -1    0    0    0  501  0.00000000000E+00 -0.00000000000E+00 -0.39860065625E+00  0.39863251845E+00  0.50400000000E-02 0.  1.
          2    1    1    2    0  502  0.20815016080E+02  0.20553755216E+02  0.12326303747E+04  0.12329774379E+04  0.25500000000E-02 0.  1.
         -2    1    1    2  502    0 -0.20815016080E+02 -0.20553755216E+02  0.95021786388E+03  0.95066803386E+03  0.25500000000E-02 0.  1.
<mgrwt>
<rscale>  0 0.59000963E+02</rscale>
<asrwt>0</asrwt>
<pdfrwt beam="2">  1        1 0.61326298E-04 0.59000963E+02</pdfrwt>
<pdfrwt beam="1">  1       -1 0.33588047E+00 0.59000963E+02</pdfrwt>
<totfact> 0.16429154E+04</totfact>
</mgrwt>
</event>
<event>
 4    1  0.1893769E-002  0.9088032E+02  0.7818608E-02  0.1300734E+00
          1   -1    0    0    0  501  0.00000000000E+00  0.00000000000E+00  0.81392120383E+01  0.81392135987E+01  0.50400000000E-02 0.  1.
         -1   -1    0    0  501    0 -0.00000000000E+00 -0.00000000000E+00 -0.25368644397E+03  0.25368644402E+03  0.50400000000E-02 0.  1.
          2    1    1    2    0  502  0.13603214666E+02 -0.39799112592E+02 -0.17232262372E+03  0.17738123763E+03  0.25500000000E-02 0. -1.
         -2    1    1    2  502    0 -0.13603214666E+02  0.39799112592E+02 -0.73224608214E+02  0.84444419987E+02  0.25500000000E-02 0. -1.
<mgrwt>
<rscale>  0 0.90880316E+02</rscale>
<asrwt>0</asrwt>
<pdfrwt beam="1">  1        1 0.12521868E-02 0.90880316E+02</pdfrwt>
<pdfrwt beam="2">  1       -1 0.39028678E-01 0.90880316E+02</pdfrwt>
<totfact> 0.64993191E+04</totfact>
</mgrwt>
</event>
<event>
 4    1  0.1893769E-002  0.6123561E+02  0.7818608E-02  0.1392718E+00
         -1   -1    0    0  501    0 -0.00000000000E+00  0.00000000000E+00  0.11857702089E+04  0.11857702089E+04  0.50400000000E-02 0. -1.
          1   -1    0    0    0  501  0.00000000000E+00 -0.00000000000E+00 -0.79057508869E+00  0.79059115379E+00  0.50400000000E-02 0. -1.
          2    1    1    2    0  502  0.25239282558E+02  0.17277633834E+02  0.56569696104E+03  0.56652324732E+03  0.25500000000E-02 0.  1.
         -2    1    1    2  502    0 -0.25239282558E+02 -0.17277633834E+02  0.61928267273E+03  0.62003755270E+03  0.25500000000E-02 0.  1.
<mgrwt>
<rscale>  0 0.61235608E+02</rscale>
<asrwt>0</asrwt>
<pdfrwt beam="2">  1        1 0.12162842E-03 0.61235608E+02</pdfrwt>
<pdfrwt beam="1">  1       -1 0.18242582E+00 0.61235608E+02</pdfrwt>
<totfact> 0.57237561E+04</totfact>
</mgrwt>
</event>
<event>
 4    1  0.1893769E-002  0.6453788E+02  0.7818608E-02  0.1379718E+00
          1   -1    0    0    0  501  0.00000000000E+00  0.00000000000E+00  0.34289125710E+03  0.34289125713E+03  0.50400000000E-02 0. -1.
         -1   -1    0    0  501    0 -0.00000000000E+00 -0.00000000000E+00 -0.30367757813E+01  0.30367799637E+01  0.50400000000E-02 0. -1.
          2    1    1    2    0  502 -0.71841381376E+01  0.31256214835E+02  0.15080912794E+03  0.15418156791E+03  0.25500000000E-02 0.  1.
         -2    1    1    2  502    0  0.71841381376E+01 -0.31256214835E+02  0.18904535338E+03  0.19174646919E+03  0.25500000000E-02 0.  1.
<mgrwt>
<rscale>  0 0.64537883E+02</rscale>
<asrwt>0</asrwt>
<pdfrwt beam="1">  1        1 0.52752533E-01 0.64537883E+02</pdfrwt>
<pdfrwt beam="2">  1       -1 0.46719632E-03 0.64537883E+02</pdfrwt>
<totfact> 0.32391360E+05</totfact>
</mgrwt>
</event>
<event>
 4    1  0.1893769E-002  0.4316105E+02  0.7818608E-02  0.1486160E+00
          1   -1    0    0    0  501  0.00000000000E+00  0.00000000000E+00  0.88549812207E+02  0.88549812350E+02  0.50400000000E-02 0. -1.
         -1   -1    0    0  501    0 -0.00000000000E+00 -0.00000000000E+00 -0.52594012337E+01  0.52594036486E+01  0.50400000000E-02 0. -1.
          2    1    1    2    0  502  0.16370985335E+02  0.11780003754E+02  0.24958757088E+02  0.32089207082E+02  0.25500000000E-02 0.  1.
         -2    1    1    2  502    0 -0.16370985335E+02 -0.11780003754E+02  0.58331653885E+02  0.61720008917E+02  0.25500000000E-02 0.  1.
<mgrwt>
<rscale>  0 0.43161052E+02</rscale>
<asrwt>0</asrwt>
<pdfrwt beam="1">  1        1 0.13623046E-01 0.43161052E+02</pdfrwt>
<pdfrwt beam="2">  1       -1 0.80913896E-03 0.43161052E+02</pdfrwt>
<totfact> 0.71842253E+05</totfact>
</mgrwt>
</event>
<event>
 4    1  0.1893769E-002  0.4061465E+02  0.7818608E-02  0.1503736E+00
         -1   -1    0    0  501    0 -0.00000000000E+00  0.00000000000E+00  0.23490493791E+03  0.23490493797E+03  0.50400000000E-02 0.  1.
          1   -1    0    0    0  501  0.00000000000E+00 -0.00000000000E+00 -0.17555469058E+01  0.17555541404E+01  0.50400000000E-02 0.  1.
          2    1    1    2    0  502  0.17383301992E+02  0.10047448064E+02  0.13430353525E+03  0.13579606028E+03  0.25500000000E-02 0.  1.
         -2    1    1    2  502    0 -0.17383301992E+02 -0.10047448064E+02  0.98845855757E+02  0.10086443183E+03  0.25500000000E-02 0.  1.
<mgrwt>
<rscale>  0 0.40614652E+02</rscale>
<asrwt>0</asrwt>
<pdfrwt beam="2">  1        1 0.27008476E-03 0.40614652E+02</pdfrwt>
<pdfrwt beam="1">  1       -1 0.36139213E-01 0.40614652E+02</pdfrwt>
<totfact> 0.50866003E+05</totfact>
</mgrwt>
</event>
<event>
 4    1  0.1893769E-002  0.4149711E+02  0.7818608E-02  0.1497475E+00
          1   -1    0    0    0  501  0.00000000000E+00  0.00000000000E+00  0.20601521061E+02  0.20601521678E+02  0.50400000000E-02 0.  1.
         -1   -1    0    0  501    0 -0.00000000000E+00 -0.00000000000E+00 -0.20896632736E+02  0.20896633344E+02  0.50400000000E-02 0.  1.
          2    1    1    2    0  502 -0.20287881856E+02  0.33119172663E+01 -0.29646276308E+01  0.20769110950E+02  0.25500000000E-02 0.  1.
         -2    1    1    2  502    0  0.20287881856E+02 -0.33119172663E+01  0.26695159558E+01  0.20729044071E+02  0.25500000000E-02 0.  1.
<mgrwt>
<rscale>  0 0.41497106E+02</rscale>
<asrwt>0</asrwt>
<pdfrwt beam="1">  1        1 0.31694649E-02 0.41497106E+02</pdfrwt>
<pdfrwt beam="2">  1       -1 0.32148667E-02 0.41497106E+02</pdfrwt>
<totfact> 0.69491173E+05</totfact>
</mgrwt>
</event>
<event>
 4    1  0.1893769E-002  0.4932898E+02  0.7818608E-02  0.1448995E+00
         -1   -1    0    0  501    0 -0.00000000000E+00  0.00000000000E+00  0.12126671560E+01  0.12126776294E+01  0.50400000000E-02 0. -1.
          1   -1    0    0    0  501  0.00000000000E+00 -0.00000000000E+00 -0.50164991214E+03  0.50164991217E+03  0.50400000000E-02 0. -1.
          2    1    1    2    0  502  0.17222122756E+02  0.15200275848E+02 -0.15864945092E+03  0.16030376846E+03  0.25500000000E-02 0. -1.
         -2    1    1    2  502    0 -0.17222122756E+02 -0.15200275848E+02 -0.34178779407E+03  0.34255882134E+03  0.25500000000E-02 0. -1.
<mgrwt>
<rscale>  0 0.49328978E+02</rscale>
<asrwt>0</asrwt>
<pdfrwt beam="2">  1        1 0.77176745E-01 0.49328978E+02</pdfrwt>
<pdfrwt beam="1">  1       -1 0.18656539E-03 0.49328978E+02</pdfrwt>
<totfact> 0.67405912E+05</totfact>
</mgrwt>
</event>
<event>
 4    1  0.1893769E-002  0.6380080E+02  0.7818608E-02  0.1382540E+00
         -1   -1    0    0  501    0 -0.00000000000E+00  0.00000000000E+00  0.23148266029E+01  0.23148320896E+01  0.50400000000E-02 0. -1.
          1   -1    0    0    0  501  0.00000000000E+00 -0.00000000000E+00 -0.43961579382E+03  0.43961579385E+03  0.50400000000E-02 0. -1.
          2    1    1    2    0  502  0.71271077430E+01  0.28786227456E+02 -0.13722300708E+03  0.14039086949E+03  0.25500000000E-02 0. -1.
         -2    1    1    2  502    0 -0.71271077430E+01 -0.28786227456E+02 -0.30007796013E+03  0.30153975645E+03  0.25500000000E-02 0. -1.
<mgrwt>
<rscale>  0 0.63800801E+02</rscale>
<asrwt>0</asrwt>
<pdfrwt beam="2">  1        1 0.67633133E-01 0.63800801E+02</pdfrwt>
<pdfrwt beam="1">  1       -1 0.35612794E-03 0.63800801E+02</pdfrwt>
<totfact> 0.34695009E+05</totfact>
</mgrwt>
</event>
<event>
 4    1  0.1893769E-002  0.5349866E+02  0.7818608E-02  0.1427335E+00
         -1   -1    0    0  501    0 -0.00000000000E+00  0.00000000000E+00  0.74350157899E+00  0.74351866120E+00  0.50400000000E-02 0.  1.
          1   -1    0    0    0  501  0.00000000000E+00 -0.00000000000E+00 -0.96236289248E+03  0.96236289249E+03  0.50400000000E-02 0.  1.
          2    1    1    2    0  502  0.17624573765E+02 -0.97780130615E+01 -0.79741291826E+03  0.79766759828E+03  0.25500000000E-02 0.  1.
         -2    1    1    2  502    0 -0.17624573765E+02  0.97780130615E+01 -0.16420647264E+03  0.16543881287E+03  0.25500000000E-02 0.  1.
<mgrwt>
<rscale>  0 0.53498657E+02</rscale>
<asrwt>0</asrwt>
<pdfrwt beam="2">  1        1 0.14805483E+00 0.53498657E+02</pdfrwt>
<pdfrwt beam="1">  1       -1 0.11438694E-03 0.53498657E+02</pdfrwt>
<totfact> 0.54131461E+05</totfact>
</mgrwt>
</event>
<event>
 4    1  0.1893769E-002  0.8810136E+02  0.7818608E-02  0.1307516E+00
         -1   -1    0    0  501    0 -0.00000000000E+00  0.00000000000E+00  0.46383733121E+01  0.46383760503E+01  0.50400000000E-02 0. -1.
          1   -1    0    0    0  501  0.00000000000E+00 -0.00000000000E+00 -0.41834968757E+03  0.41834968760E+03  0.50400000000E-02 0. -1.
          2    1    1    2    0  502 -0.41917745323E+02  0.13319143932E+02 -0.19512900921E+03  0.20002456652E+03  0.25500000000E-02 0.  1.
         -2    1    1    2  502    0  0.41917745323E+02 -0.13319143932E+02 -0.21858230504E+03  0.22296349713E+03  0.25500000000E-02 0.  1.
<mgrwt>
<rscale>  0 0.88101365E+02</rscale>
<asrwt>0</asrwt>
<pdfrwt beam="2">  1        1 0.64361461E-01 0.88101365E+02</pdfrwt>
<pdfrwt beam="1">  1       -1 0.71359644E-03 0.88101365E+02</pdfrwt>
<totfact> 0.14879013E+05</totfact>
</mgrwt>
</event>
<event>
 4    1  0.1893769E-002  0.6090573E+02  0.7818608E-02  0.1394070E+00
         -1   -1    0    0  501    0 -0.00000000000E+00  0.00000000000E+00  0.92291699879E+01  0.92291713640E+01  0.50400000000E-02 0. -1.
          1   -1    0    0    0  501  0.00000000000E+00 -0.00000000000E+00 -0.10048325520E+03  0.10048325533E+03  0.50400000000E-02 0. -1.
          2    1    1    2    0  502 -0.30317078359E+02 -0.26290278788E+01 -0.47712324771E+02  0.56590661503E+02  0.25500000000E-02 0.  1.
         -2    1    1    2  502    0  0.30317078359E+02  0.26290278788E+01 -0.43541760440E+02  0.53121765186E+02  0.25500000000E-02 0.  1.
<mgrwt>
<rscale>  0 0.60905735E+02</rscale>
<asrwt>0</asrwt>
<pdfrwt beam="2">  1        1 0.15458962E-01 0.60905735E+02</pdfrwt>
<pdfrwt beam="1">  1       -1 0.14198725E-02 0.60905735E+02</pdfrwt>
<totfact> 0.30514249E+05</totfact>
</mgrwt>
</event>
<event>
 4    1  0.1893769E-002  0.5627045E+02  0.7818608E-02  0.1414185E+00
         -1   -1    0    0  501    0 -0.00000000000E+00  0.00000000000E+00  0.12089563850E+03  0.12089563860E+03  0.50400000000E-02 0. -1.
          1   -1    0    0    0  501  0.00000000000E+00 -0.00000000000E+00 -0.65477201314E+01  0.65477220711E+01  0.50400000000E-02 0. -1.
          2    1    1    2    0  502 -0.21095289902E+02  0.16947990026E+02  0.74621330603E+02  0.79376247136E+02  0.25500000000E-02 0. -1.
         -2    1    1    2  502    0  0.21095289902E+02 -0.16947990026E+02  0.39726587760E+02  0.48067113535E+02  0.25500000000E-02 0. -1.
<mgrwt>
<rscale>  0 0.56270452E+02</rscale>
<asrwt>0</asrwt>
<pdfrwt beam="2">  1        1 0.10073418E-02 0.56270452E+02</pdfrwt>
<pdfrwt beam="1">  1       -1 0.18599327E-01 0.56270452E+02</pdfrwt>
<totfact> 0.26818900E+05</totfact>
</mgrwt>
</event>
<event>
 4    1  0.1893769E-002  0.4833400E+02  0.7818608E-02  0.1454540E+00
          1   -1    0    0    0  501  0.00000000000E+00  0.00000000000E+00  0.47133614853E+02  0.47133615122E+02  0.50400000000E-02 0. -1.
         -1   -1    0    0  501    0 -0.00000000000E+00 -0.00000000000E+00 -0.12391238021E+02  0.12391239046E+02  0.50400000000E-02 0. -1.
          2    1    1    2    0  502  0.70226480627E+01 -0.23064751768E+02  0.15331334431E+02  0.28571842465E+02  0.25500000000E-02 0. -1.
         -2    1    1    2  502    0 -0.70226480627E+01  0.23064751768E+02  0.19411042400E+02  0.30953011703E+02  0.25500000000E-02 0. -1.
<mgrwt>
<rscale>  0 0.48334000E+02</rscale>
<asrwt>0</asrwt>
<pdfrwt beam="1">  1        1 0.72513254E-02 0.48334000E+02</pdfrwt>
<pdfrwt beam="2">  1       -1 0.19063444E-02 0.48334000E+02</pdfrwt>
<totfact> 0.50539109E+05</totfact>
</mgrwt>
</event>
<event>
 4    1  0.1893769E-002  0.9474108E+02  0.7818608E-02  0.1291760E+00
         -1   -1    0    0  501    0 -0.00000000000E+00  0.00000000000E+00  0.48771729378E+02  0.48771729638E+02  0.50400000000E-02 0. -1.
          1   -1    0    0    0  501  0.00000000000E+00 -0.00000000000E+00 -0.46009604790E+02  0.46009605066E+02  0.50400000000E-02 0. -1.
          2    1    1    2    0  502  0.16745935696E+02 -0.23570564444E+02 -0.36157809447E+02  0.46296706806E+02  0.25500000000E-02 0.  1.
         -2    1    1    2  502    0 -0.16745935696E+02  0.23570564444E+02  0.38919934036E+02  0.48484627898E+02  0.25500000000E-02 0.  1.
<mgrwt>
<rscale>  0 0.94741079E+02</rscale>
<asrwt>0</asrwt>
<pdfrwt beam="2">  1        1 0.70784008E-02 0.94741079E+02</pdfrwt>
<pdfrwt beam="1">  1       -1 0.75033430E-02 0.94741079E+02</pdfrwt>
<totfact> 0.83118348E+04</totfact>
</mgrwt>
</event>
<event>
 4    1  0.1893769E-002  0.8309492E+02  0.7818608E-02  0.1320491E+00
          1   -1    0    0    0  501  0.00000000000E+00  0.00000000000E+00  0.15670826567E+03  0.15670826575E+03  0.50400000000E-02 0.  1.
         -1   -1    0    0  501    0 -0.00000000000E+00 -0.00000000000E+00 -0.11015318640E+02  0.11015319793E+02  0.50400000000E-02 0.  1.
          2    1    1    2    0  502  0.38570706015E+02  0.71301625133E-01  0.10401757284E+03  0.11093854115E+03  0.25500000000E-02 0. -1.
         -2    1    1    2  502    0 -0.38570706015E+02 -0.71301625133E-01  0.41675374188E+02  0.56785044392E+02  0.25500000000E-02 0. -1.
<mgrwt>
<rscale>  0 0.83094924E+02</rscale>
<asrwt>0</asrwt>
<pdfrwt beam="1">  1        1 0.24108960E-01 0.83094924E+02</pdfrwt>
<pdfrwt beam="2">  1       -1 0.16946648E-02 0.83094924E+02</pdfrwt>
<totfact> 0.14495328E+05</totfact>
</mgrwt>
</event>
<event>
 4    1  0.1893769E-002  0.8094835E+02  0.7818608E-02  0.1326382E+00
          1   -1    0    0    0  501  0.00000000000E+00  0.00000000000E+00  0.38629443163E+03  0.38629443166E+03  0.50400000000E-02 0. -1.
         -1   -1    0    0  501    0 -0.00000000000E+00 -0.00000000000E+00 -0.42406983121E+01  0.42407013071E+01  0.50400000000E-02 0. -1.
          2    1    1    2    0  502  0.12708895196E+02  0.38406730246E+02  0.18498991084E+03  0.18936171753E+03  0.25500000000E-02 0. -1.
         -2    1    1    2  502    0 -0.12708895196E+02 -0.38406730246E+02  0.19706382247E+03  0.20117341544E+03  0.25500000000E-02 0. -1.
<mgrwt>
<rscale>  0 0.80948347E+02</rscale>
<asrwt>0</asrwt>
<pdfrwt beam="1">  1        1 0.59429900E-01 0.80948347E+02</pdfrwt>
<pdfrwt beam="2">  1       -1 0.65241550E-03 0.80948347E+02</pdfrwt>
<totfact> 0.18360148E+05</totfact>
</mgrwt>
</event>
<event>
 4    1  0.1893769E-002  0.4503272E+02  0.7818608E-02  0.1474138E+00
          1   -1    0    0    0  501  0.00000000000E+00  0.00000000000E+00  0.34319190574E+01  0.34319227582E+01  0.50400000000E-02 0.  1.
         -1   -1    0    0  501    0 -0.00000000000E+00 -0.00000000000E+00 -0.14772670929E+03  0.14772670938E+03  0.50400000000E-02 0.  1.
          2    1    1    2    0  502 -0.17856010657E+02 -0.10771562975E+02 -0.43641098315E+02  0.48367438986E+02  0.25500000000E-02 0.  1.
         -2    1    1    2  502    0  0.17856010657E+02  0.10771562975E+02 -0.10065369192E+03  0.10279119315E+03  0.25500000000E-02 0.  1.
<mgrwt>
<rscale>  0 0.45032717E+02</rscale>
<asrwt>0</asrwt>
<pdfrwt beam="1">  1        1 0.52798795E-03 0.45032717E+02</pdfrwt>
<pdfrwt beam="2">  1       -1 0.22727181E-01 0.45032717E+02</pdfrwt>
<totfact> 0.44705074E+05</totfact>
</mgrwt>
</event>
<event>
 4    1  0.1893769E-002  0.5778519E+02  0.7818608E-02  0.1407369E+00
          1   -1    0    0    0  501  0.00000000000E+00  0.00000000000E+00  0.14493857920E+02  0.14493858796E+02  0.50400000000E-02 0.  1.
         -1   -1    0    0  501    0 -0.00000000000E+00 -0.00000000000E+00 -0.57595565375E+02  0.57595565596E+02  0.50400000000E-02 0.  1.
          2    1    1    2    0  502  0.18932629638E+02  0.16739697569E+02 -0.40799242838E+01  0.25598979049E+02  0.25500000000E-02 0. -1.
         -2    1    1    2  502    0 -0.18932629638E+02 -0.16739697569E+02 -0.39021783172E+02  0.46490445342E+02  0.25500000000E-02 0. -1.
<mgrwt>
<rscale>  0 0.57785188E+02</rscale>
<asrwt>0</asrwt>
<pdfrwt beam="1">  1        1 0.22298244E-02 0.57785188E+02</pdfrwt>
<pdfrwt beam="2">  1       -1 0.88608562E-02 0.57785188E+02</pdfrwt>
<totfact> 0.28103888E+05</totfact>
</mgrwt>
</event>
<event>
 4    1  0.1893769E-002  0.6447854E+02  0.7818608E-02  0.1379944E+00
          1   -1    0    0    0  501  0.00000000000E+00  0.00000000000E+00  0.17239092199E+02  0.17239092936E+02  0.50400000000E-02 0. -1.
         -1   -1    0    0  501    0 -0.00000000000E+00 -0.00000000000E+00 -0.60291485291E+02  0.60291485502E+02  0.50400000000E-02 0. -1.
          2    1    1    2    0  502  0.28100778166E+02  0.77931156680E+01 -0.49962865842E+01  0.29586302092E+02  0.25500000000E-02 0.  1.
         -2    1    1    2  502    0 -0.28100778166E+02 -0.77931156680E+01 -0.38056106508E+02  0.47944276346E+02  0.25500000000E-02 0.  1.
<mgrwt>
<rscale>  0 0.64478539E+02</rscale>
<asrwt>0</asrwt>
<pdfrwt beam="1">  1        1 0.26521681E-02 0.64478539E+02</pdfrwt>
<pdfrwt beam="2">  1       -1 0.92756131E-02 0.64478539E+02</pdfrwt>
<totfact> 0.21250634E+05</totfact>
</mgrwt>
</event>
<event>
 4    1  0.1893769E-002  0.6247701E+02  0.7818608E-02  0.1387721E+00
         -1   -1    0    0  501    0 -0.00000000000E+00  0.00000000000E+00  0.11172170413E+02  0.11172171550E+02  0.50400000000E-02 0. -1.
          1   -1    0    0    0  501  0.00000000000E+00 -0.00000000000E+00 -0.87345988665E+02  0.87345988811E+02  0.50400000000E-02 0. -1.
          2    1    1    2    0  502 -0.11869136737E+02  0.16822065520E+02 -0.10393099275E+01  0.20614035676E+02  0.25500000000E-02 0. -1.
         -2    1    1    2  502    0  0.11869136737E+02 -0.16822065520E+02 -0.75134508325E+02  0.77904124685E+02  0.25500000000E-02 0. -1.
<mgrwt>
<rscale>  0 0.62477014E+02</rscale>
<asrwt>0</asrwt>
<pdfrwt beam="2">  1        1 0.13437844E-01 0.62477014E+02</pdfrwt>
<pdfrwt beam="1">  1       -1 0.17187956E-02 0.62477014E+02</pdfrwt>
<totfact> 0.28014264E+05</totfact>
</mgrwt>
</event>
<event>
 4    1  0.1893769E-002  0.6168864E+02  0.7818608E-02  0.1390879E+00
          1   -1    0    0    0  501  0.00000000000E+00  0.00000000000E+00  0.14469723418E+03  0.14469723427E+03  0.50400000000E-02 0.  1.
         -1   -1    0    0  501    0 -0.00000000000E+00 -0.00000000000E+00 -0.65749134241E+01  0.65749153558E+01  0.50400000000E-02 0.  1.
          2    1    1    2    0  502 -0.28621519202E+02  0.70410873998E+01  0.46774065588E+02  0.55286358999E+02  0.25500000000E-02 0.  1.
         -2    1    1    2  502    0  0.28621519202E+02 -0.70410873998E+01  0.91348255171E+02  0.95985790628E+02  0.25500000000E-02 0.  1.
<mgrwt>
<rscale>  0 0.61688636E+02</rscale>
<asrwt>0</asrwt>
<pdfrwt beam="1">  1        1 0.22261113E-01 0.61688636E+02</pdfrwt>
<pdfrwt beam="2">  1       -1 0.10115253E-02 0.61688636E+02</pdfrwt>
<totfact> 0.31217345E+05</totfact>
</mgrwt>
</event>
<event>
 4    1  0.1893769E-002  0.4981905E+02  0.7818608E-02  0.1446320E+00
          1   -1    0    0    0  501  0.00000000000E+00  0.00000000000E+00  0.47598407889E+03  0.47598407892E+03  0.50400000000E-02 0.  1.
         -1   -1    0    0  501    0 -0.00000000000E+00 -0.00000000000E+00 -0.13035773216E+01  0.13035870646E+01  0.50400000000E-02 0.  1.
          2    1    1    2    0  502  0.23620340329E+02  0.39676128374E+00  0.31302347548E+03  0.31391364116E+03  0.25500000000E-02 0. -1.
         -2    1    1    2  502    0 -0.23620340329E+02 -0.39676128374E+00  0.16165702609E+03  0.16337402483E+03  0.25500000000E-02 0. -1.
<mgrwt>
<rscale>  0 0.49819048E+02</rscale>
<asrwt>0</asrwt>
<pdfrwt beam="1">  1        1 0.73228306E-01 0.49819048E+02</pdfrwt>
<pdfrwt beam="2">  1       -1 0.20055115E-03 0.49819048E+02</pdfrwt>
<totfact> 0.65383206E+05</totfact>
</mgrwt>
</event>
<event>
 4    1  0.1893769E-002  0.5446015E+02  0.7818608E-02  0.1422669E+00
          1   -1    0    0    0  501  0.00000000000E+00  0.00000000000E+00  0.15125470326E+01  0.15125554295E+01  0.50400000000E-02 0. -1.
         -1   -1    0    0  501    0 -0.00000000000E+00 -0.00000000000E+00 -0.49021602008E+03  0.49021602011E+03  0.50400000000E-02 0. -1.
          2    1    1    2    0  502 -0.22331519565E+02 -0.15387900768E+02 -0.26645488323E+03  0.26783145644E+03  0.25500000000E-02 0. -1.
         -2    1    1    2  502    0  0.22331519565E+02  0.15387900768E+02 -0.22224858982E+03  0.22389711910E+03  0.25500000000E-02 0. -1.
<mgrwt>
<rscale>  0 0.54460145E+02</rscale>
<asrwt>0</asrwt>
<pdfrwt beam="1">  1        1 0.23270058E-03 0.54460145E+02</pdfrwt>
<pdfrwt beam="2">  1       -1 0.75417723E-01 0.54460145E+02</pdfrwt>
<totfact> 0.17850339E+05</totfact>
</mgrwt>
</event>
<event>
 4    1  0.1893769E-002  0.8380857E+02  0.7818608E-02  0.1318578E+00
          1   -1    0    0    0  501  0.00000000000E+00  0.00000000000E+00  0.70384555137E+02  0.70384555318E+02  0.50400000000E-02 0. -1.
         -1   -1    0    0  501    0 -0.00000000000E+00 -0.00000000000E+00 -0.24948215164E+02  0.24948215673E+02  0.50400000000E-02 0. -1.
          2    1    1    2    0  502  0.26810008167E+02  0.21150066805E+01 -0.13836673598E+02  0.30244062788E+02  0.25500000000E-02 0.  1.
         -2    1    1    2  502    0 -0.26810008167E+02 -0.21150066805E+01  0.59273013571E+02  0.65088708202E+02  0.25500000000E-02 0.  1.
<mgrwt>
<rscale>  0 0.83808569E+02</rscale>
<asrwt>0</asrwt>
<pdfrwt beam="1">  1        1 0.10828393E-01 0.83808569E+02</pdfrwt>
<pdfrwt beam="2">  1       -1 0.38381870E-02 0.83808569E+02</pdfrwt>
<totfact> 0.12438380E+05</totfact>
</mgrwt>
</event>
<event>
 4    1  0.1893769E-002  0.5926138E+02  0.7818608E-02  0.1400958E+00
          1   -1    0    0    0  501  0.00000000000E+00  0.00000000000E+00  0.12313722519E+04  0.12313722519E+04  0.50400000000E-02 0. -1.
         -1   -1    0    0  501    0 -0.00000000000E+00 -0.00000000000E+00 -0.71299870338E+00  0.71301651637E+00  0.50400000000E-02 0. -1.
          2    1    1    2    0  502  0.26391786400E+02  0.12942366987E+02  0.53768663923E+03  0.53848951082E+03  0.25500000000E-02 0. -1.
         -2    1    1    2  502    0 -0.26391786400E+02 -0.12942366987E+02  0.69297261398E+03  0.69359575762E+03  0.25500000000E-02 0. -1.
<mgrwt>
<rscale>  0 0.59261380E+02</rscale>
<asrwt>0</asrwt>
<pdfrwt beam="1">  1        1 0.18943970E+00 0.59261380E+02</pdfrwt>
<pdfrwt beam="2">  1       -1 0.10969475E-03 0.59261380E+02</pdfrwt>
<totfact> 0.38354187E+05</totfact>
</mgrwt>
</event>
<event>
 4    1  0.1893769E-002  0.8356531E+02  0.7818608E-02  0.1319228E+00
         -1   -1    0    0  501    0 -0.00000000000E+00  0.00000000000E+00  0.19716766489E+01  0.19716830906E+01  0.50400000000E-02 0.  1.
          1   -1    0    0    0  501  0.00000000000E+00 -0.00000000000E+00 -0.88543301248E+03  0.88543301249E+03  0.50400000000E-02 0.  1.
          2    1    1    2    0  502 -0.39823555806E+02  0.12179559061E+02 -0.40566694790E+03  0.40779888411E+03  0.25500000000E-02 0.  1.
         -2    1    1    2  502    0  0.39823555806E+02 -0.12179559061E+02 -0.47779438793E+03  0.47960581148E+03  0.25500000000E-02 0.  1.
<mgrwt>
<rscale>  0 0.83565315E+02</rscale>
<asrwt>0</asrwt>
<pdfrwt beam="2">  1        1 0.13622015E+00 0.83565315E+02</pdfrwt>
<pdfrwt beam="1">  1       -1 0.30333607E-03 0.83565315E+02</pdfrwt>
<totfact> 0.17555066E+05</totfact>
</mgrwt>
</event>
<event>
 4    1  0.1893769E-002  0.6040210E+02  0.7818608E-02  0.1396152E+00
          1   -1    0    0    0  501  0.00000000000E+00  0.00000000000E+00  0.89071274430E+03  0.89071274432E+03  0.50400000000E-02 0.  1.
         -1   -1    0    0  501    0 -0.00000000000E+00 -0.00000000000E+00 -0.10240089584E+01  0.10240213613E+01  0.50400000000E-02 0.  1.
          2    1    1    2    0  502 -0.11087897517E+02  0.18214632586E+02  0.12910587711E+03  0.13085504126E+03  0.25500000000E-02 0. -1.
         -2    1    1    2  502    0  0.11087897517E+02 -0.18214632586E+02  0.76058285823E+03  0.76088172442E+03  0.25500000000E-02 0. -1.
<mgrwt>
<rscale>  0 0.60402098E+02</rscale>
<asrwt>0</asrwt>
<pdfrwt beam="1">  1        1 0.13703307E+00 0.60402098E+02</pdfrwt>
<pdfrwt beam="2">  1       -1 0.15754040E-03 0.60402098E+02</pdfrwt>
<totfact> 0.40493763E+05</totfact>
</mgrwt>
</event>
<event>
 4    1  0.1893769E-002  0.1391787E+03  0.7818608E-02  0.1214438E+00
          1   -1    0    0    0  501  0.00000000000E+00  0.00000000000E+00  0.46243863571E+03  0.46243863574E+03  0.50400000000E-02 0.  1.
         -1   -1    0    0  501    0 -0.00000000000E+00 -0.00000000000E+00 -0.10472038951E+02  0.10472040164E+02  0.50400000000E-02 0.  1.
          2    1    1    2    0  502  0.26477373532E+02  0.62879509799E+02  0.27254668352E+03  0.28095654249E+03  0.25500000000E-02 0. -1.
         -2    1    1    2  502    0 -0.26477373532E+02 -0.62879509799E+02  0.17941991324E+03  0.19195413341E+03  0.25500000000E-02 0. -1.
<mgrwt>
<rscale>  0 0.13917867E+03</rscale>
<asrwt>0</asrwt>
<pdfrwt beam="1">  1        1 0.71144389E-01 0.13917867E+03</pdfrwt>
<pdfrwt beam="2">  1       -1 0.16110834E-02 0.13917867E+03</pdfrwt>
<totfact> 0.43851464E+04</totfact>
</mgrwt>
</event>
<event>
 4    1  0.1893769E-002  0.5776648E+02  0.7818608E-02  0.1407451E+00
         -1   -1    0    0  501    0 -0.00000000000E+00  0.00000000000E+00  0.68690577901E+00  0.68692426864E+00  0.50400000000E-02 0.  1.
          1   -1    0    0    0  501  0.00000000000E+00 -0.00000000000E+00 -0.12144754977E+04  0.12144754978E+04  0.50400000000E-02 0.  1.
          2    1    1    2    0  502 -0.12138493059E+02  0.24547778444E+02 -0.80004006227E+03  0.80050861187E+03  0.25500000000E-02 0.  1.
         -2    1    1    2  502    0  0.12138493059E+02 -0.24547778444E+02 -0.41374852970E+03  0.41465381015E+03  0.25500000000E-02 0.  1.
<mgrwt>
<rscale>  0 0.57766477E+02</rscale>
<asrwt>0</asrwt>
<pdfrwt beam="2">  1        1 0.18684067E+00 0.57766477E+02</pdfrwt>
<pdfrwt beam="1">  1       -1 0.10568021E-03 0.57766477E+02</pdfrwt>
<totfact> 0.41191273E+05</totfact>
</mgrwt>
</event>
<event>
 4    1  0.1893769E-002  0.4668704E+02  0.7818608E-02  0.1464076E+00
          1   -1    0    0    0  501  0.00000000000E+00  0.00000000000E+00  0.74695898470E+03  0.74695898472E+03  0.50400000000E-02 0.  1.
         -1   -1    0    0  501    0 -0.00000000000E+00 -0.00000000000E+00 -0.72950921721E+00  0.72952662707E+00  0.50400000000E-02 0.  1.
          2    1    1    2    0  502  0.10195214978E+02 -0.19799073101E+02  0.48518962877E+03  0.48570044428E+03  0.25500000000E-02 0.  1.
         -2    1    1    2  502    0 -0.10195214978E+02  0.19799073101E+02  0.26103984672E+03  0.26198806707E+03  0.25500000000E-02 0.  1.
<mgrwt>
<rscale>  0 0.46687042E+02</rscale>
<asrwt>0</asrwt>
<pdfrwt beam="1">  1        1 0.11491665E+00 0.46687042E+02</pdfrwt>
<pdfrwt beam="2">  1       -1 0.11223364E-03 0.46687042E+02</pdfrwt>
<totfact> 0.78443397E+05</totfact>
</mgrwt>
</event>
<event>
 4    1  0.1893769E-002  0.1084208E+03  0.7818608E-02  0.1263523E+00
         -1   -1    0    0  501    0 -0.00000000000E+00  0.00000000000E+00  0.10743065661E+02  0.10743066843E+02  0.50400000000E-02 0. -1.
          1   -1    0    0    0  501  0.00000000000E+00 -0.00000000000E+00 -0.27355029736E+03  0.27355029741E+03  0.50400000000E-02 0. -1.
          2    1    1    2    0  502  0.92401265604E+01  0.50421747261E+02 -0.17764806800E+03  0.18489610219E+03  0.25500000000E-02 0.  1.
         -2    1    1    2  502    0 -0.92401265604E+01 -0.50421747261E+02 -0.85159163703E+02  0.99397262059E+02  0.25500000000E-02 0.  1.
<mgrwt>
<rscale>  0 0.10842083E+03</rscale>
<asrwt>0</asrwt>
<pdfrwt beam="2">  1        1 0.42084656E-01 0.10842083E+03</pdfrwt>
<pdfrwt beam="1">  1       -1 0.16527796E-02 0.10842083E+03</pdfrwt>
<totfact> 0.78939177E+04</totfact>
</mgrwt>
</event>
<event>
 4    1  0.1893769E-002  0.8109777E+02  0.7818608E-02  0.1325965E+00
          1   -1    0    0    0  501  0.00000000000E+00  0.00000000000E+00  0.67968625358E+03  0.67968625360E+03  0.50400000000E-02 0. -1.
         -1   -1    0    0  501    0 -0.00000000000E+00 -0.00000000000E+00 -0.24190726699E+01  0.24190779202E+01  0.50400000000E-02 0. -1.
          2    1    1    2    0  502 -0.36038821142E+02 -0.13186099084E+02  0.44879468479E+03  0.45043239108E+03  0.25500000000E-02 0.  1.
         -2    1    1    2  502    0  0.36038821142E+02  0.13186099084E+02  0.22847249612E+03  0.23167294043E+03  0.25500000000E-02 0.  1.
<mgrwt>
<rscale>  0 0.81097774E+02</rscale>
<asrwt>0</asrwt>
<pdfrwt beam="1">  1        1 0.10456721E+00 0.81097774E+02</pdfrwt>
<pdfrwt beam="2">  1       -1 0.37216509E-03 0.81097774E+02</pdfrwt>
<totfact> 0.19348142E+05</totfact>
</mgrwt>
</event>
<event>
 4    1  0.1893769E-002  0.5240697E+02  0.7818608E-02  0.1432775E+00
         -1   -1    0    0  501    0 -0.00000000000E+00  0.00000000000E+00  0.38883496724E+02  0.38883497051E+02  0.50400000000E-02 0. -1.
          1   -1    0    0    0  501  0.00000000000E+00 -0.00000000000E+00 -0.17658455017E+02  0.17658455737E+02  0.50400000000E-02 0. -1.
          2    1    1    2    0  502 -0.70892919279E+01  0.20120848177E+02 -0.58036631202E+01  0.22108575339E+02  0.25500000000E-02 0. -1.
         -2    1    1    2  502    0  0.70892919279E+01 -0.20120848177E+02  0.27028704827E+02  0.34433377449E+02  0.25500000000E-02 0. -1.
<mgrwt>
<rscale>  0 0.52406965E+02</rscale>
<asrwt>0</asrwt>
<pdfrwt beam="2">  1        1 0.27166855E-02 0.52406965E+02</pdfrwt>
<pdfrwt beam="1">  1       -1 0.59820765E-02 0.52406965E+02</pdfrwt>
<totfact> 0.37395858E+05</totfact>
</mgrwt>
</event>
<event>
 4    1  0.1893769E-002  0.4125142E+02  0.7818608E-02  0.1499199E+00
          1   -1    0    0    0  501  0.00000000000E+00  0.00000000000E+00  0.25283922557E+04  0.25283922557E+04  0.50400000000E-02 0. -1.
         -1   -1    0    0  501    0 -0.00000000000E+00 -0.00000000000E+00 -0.16821930207E+00  0.16829478658E+00  0.50400000000E-02 0. -1.
          2    1    1    2    0  502  0.19567714031E+02 -0.62977747660E+01  0.13678172758E+04  0.13679717312E+04  0.25500000000E-02 0.  1.
         -2    1    1    2  502    0 -0.19567714031E+02  0.62977747660E+01  0.11604067607E+04  0.11605888194E+04  0.25500000000E-02 0.  1.
<mgrwt>
<rscale>  0 0.41251416E+02</rscale>
<asrwt>0</asrwt>
<pdfrwt beam="1">  1        1 0.38897825E+00 0.41251416E+02</pdfrwt>
<pdfrwt beam="2">  1       -1 0.25886044E-04 0.41251416E+02</pdfrwt>
<totfact> 0.39324269E+05</totfact>
</mgrwt>
</event>
<event>
 4    1  0.1893769E-002  0.6245356E+02  0.7818608E-02  0.1387814E+00
         -1   -1    0    0  501    0 -0.00000000000E+00  0.00000000000E+00  0.14187384490E+01  0.14187474011E+01  0.50400000000E-02 0.  1.
          1   -1    0    0    0  501  0.00000000000E+00 -0.00000000000E+00 -0.68730686831E+03  0.68730686833E+03  0.50400000000E-02 0.  1.
          2    1    1    2    0  502 -0.16852078069E+02 -0.21999138850E+02 -0.18422139113E+03  0.18629405680E+03  0.25500000000E-02 0.  1.
         -2    1    1    2  502    0  0.16852078069E+02  0.21999138850E+02 -0.50166673874E+03  0.50243155893E+03  0.25500000000E-02 0.  1.
<mgrwt>
<rscale>  0 0.62453559E+02</rscale>
<asrwt>0</asrwt>
<pdfrwt beam="2">  1        1 0.10573925E+00 0.62453559E+02</pdfrwt>
<pdfrwt beam="1">  1       -1 0.21826869E-03 0.62453559E+02</pdfrwt>
<totfact> 0.37958603E+05</totfact>
</mgrwt>
</event>
<event>
 4    1  0.1893769E-002  0.5893500E+02  0.7818608E-02  0.1402356E+00
          1   -1    0    0    0  501  0.00000000000E+00  0.00000000000E+00  0.47781427253E+03  0.47781427256E+03  0.50400000000E-02 0.  1.
         -1   -1    0    0  501    0 -0.00000000000E+00 -0.00000000000E+00 -0.18172997787E+01  0.18173067675E+01  0.50400000000E-02 0.  1.
          2    1    1    2    0  502 -0.13942909300E+02 -0.20858387425E+02  0.36377598406E+03  0.36464015636E+03  0.25500000000E-02 0. -1.
         -2    1    1    2  502    0  0.13942909300E+02  0.20858387425E+02  0.11222098870E+03  0.11499142297E+03  0.25500000000E-02 0. -1.
<mgrwt>
<rscale>  0 0.58934997E+02</rscale>
<asrwt>0</asrwt>
<pdfrwt beam="1">  1        1 0.73509987E-01 0.58934997E+02</pdfrwt>
<pdfrwt beam="2">  1       -1 0.27958475E-03 0.58934997E+02</pdfrwt>
<totfact> 0.42919139E+05</totfact>
</mgrwt>
</event>
<event>
 4    1  0.1893769E-002  0.5933030E+02  0.7818608E-02  0.1400664E+00
          1   -1    0    0    0  501  0.00000000000E+00  0.00000000000E+00  0.14601109755E+04  0.14601109755E+04  0.50400000000E-02 0. -1.
         -1   -1    0    0  501    0 -0.00000000000E+00 -0.00000000000E+00 -0.60269791853E+00  0.60271899141E+00  0.50400000000E-02 0. -1.
          2    1    1    2    0  502  0.60564464677E+01  0.19190019660E+02  0.12663825418E+04  0.12665424113E+04  0.25500000000E-02 0. -1.
         -2    1    1    2  502    0 -0.60564464677E+01 -0.19190019660E+02  0.19312573585E+03  0.19417128329E+03  0.25500000000E-02 0. -1.
<mgrwt>
<rscale>  0 0.59330304E+02</rscale>
<asrwt>0</asrwt>
<pdfrwt beam="1">  1        1 0.22463038E+00 0.59330304E+02</pdfrwt>
<pdfrwt beam="2">  1       -1 0.92725238E-04 0.59330304E+02</pdfrwt>
<totfact> 0.34393519E+05</totfact>
</mgrwt>
</event>
<event>
 4    1  0.1893769E-002  0.4801747E+02  0.7818608E-02  0.1456338E+00
          1   -1    0    0    0  501  0.00000000000E+00  0.00000000000E+00  0.11250806590E+04  0.11250806590E+04  0.50400000000E-02 0. -1.
         -1   -1    0    0  501    0 -0.00000000000E+00 -0.00000000000E+00 -0.51232361500E+00  0.51234840499E+00  0.50400000000E-02 0. -1.
          2    1    1    2    0  502  0.11372519087E+02 -0.20592177545E+02  0.44974781004E+03  0.45036259238E+03  0.25500000000E-02 0.  1.
         -2    1    1    2  502    0 -0.11372519087E+02  0.20592177545E+02  0.67482052537E+03  0.67523041507E+03  0.25500000000E-02 0.  1.
<mgrwt>
<rscale>  0 0.48017470E+02</rscale>
<asrwt>0</asrwt>
<pdfrwt beam="1">  1        1 0.17308688E+00 0.48017470E+02</pdfrwt>
<pdfrwt beam="2">  1       -1 0.78822042E-04 0.48017470E+02</pdfrwt>
<totfact> 0.67558084E+05</totfact>
</mgrwt>
</event>
<event>
 4    1  0.1893769E-002  0.5101813E+02  0.7818608E-02  0.1439926E+00
         -1   -1    0    0  501    0 -0.00000000000E+00  0.00000000000E+00  0.38981609639E+00  0.38984867655E+00  0.50400000000E-02 0.  1.
          1   -1    0    0    0  501  0.00000000000E+00 -0.00000000000E+00 -0.16692108726E+04  0.16692108726E+04  0.50400000000E-02 0.  1.
          2    1    1    2    0  502  0.19927659356E+02 -0.13981154130E+02 -0.10839167892E+04  0.10841901079E+04  0.25500000000E-02 0. -1.
         -2    1    1    2  502    0 -0.19927659356E+02  0.13981154130E+02 -0.58490426728E+03  0.58541061330E+03  0.25500000000E-02 0. -1.
<mgrwt>
<rscale>  0 0.51018133E+02</rscale>
<asrwt>0</asrwt>
<pdfrwt beam="2">  1        1 0.25679595E+00 0.51018133E+02</pdfrwt>
<pdfrwt beam="1">  1       -1 0.59975551E-04 0.51018133E+02</pdfrwt>
<totfact> 0.44703744E+05</totfact>
</mgrwt>
</event>
<event>
 4    1  0.1893769E-002  0.6015340E+02  0.7818608E-02  0.1397189E+00
          1   -1    0    0    0  501  0.00000000000E+00  0.00000000000E+00  0.35790541552E+02  0.35790541907E+02  0.50400000000E-02 0. -1.
         -1   -1    0    0  501    0 -0.00000000000E+00 -0.00000000000E+00 -0.25275049880E+02  0.25275050382E+02  0.50400000000E-02 0. -1.
          2    1    1    2    0  502  0.22970285036E+02  0.10694767109E+02  0.21708288735E+02  0.33365578737E+02  0.25500000000E-02 0. -1.
         -2    1    1    2  502    0 -0.22970285036E+02 -0.10694767109E+02 -0.11192797063E+02  0.27700013552E+02  0.25500000000E-02 0. -1.
<mgrwt>
<rscale>  0 0.60153396E+02</rscale>
<asrwt>0</asrwt>
<pdfrwt beam="1">  1        1 0.55062372E-02 0.60153396E+02</pdfrwt>
<pdfrwt beam="2">  1       -1 0.38884693E-02 0.60153396E+02</pdfrwt>
<totfact> 0.27874291E+05</totfact>
</mgrwt>
</event>
<event>
 4    1  0.1893769E-002  0.4843733E+02  0.7818608E-02  0.1453957E+00
          1   -1    0    0    0  501  0.00000000000E+00  0.00000000000E+00  0.20896406079E+02  0.20896406687E+02  0.50400000000E-02 0. -1.
         -1   -1    0    0  501    0 -0.00000000000E+00 -0.00000000000E+00 -0.28069121362E+02  0.28069121815E+02  0.50400000000E-02 0. -1.
          2    1    1    2    0  502  0.21567914894E+02  0.10462794415E+02 -0.70734306958E+01  0.24993568136E+02  0.25500000000E-02 0. -1.
         -2    1    1    2  502    0 -0.21567914894E+02 -0.10462794415E+02 -0.99284587243E-01  0.23971960366E+02  0.25500000000E-02 0. -1.
<mgrwt>
<rscale>  0 0.48437332E+02</rscale>
<asrwt>0</asrwt>
<pdfrwt beam="1">  1        1 0.32148318E-02 0.48437332E+02</pdfrwt>
<pdfrwt beam="2">  1       -1 0.43183265E-02 0.48437332E+02</pdfrwt>
<totfact> 0.46746430E+05</totfact>
</mgrwt>
</event>
<event>
 4    1  0.1893769E-002  0.5422918E+02  0.7818608E-02  0.1423780E+00
          1   -1    0    0    0  501  0.00000000000E+00  0.00000000000E+00  0.15383678692E+02  0.15383679517E+02  0.50400000000E-02 0. -1.
         -1   -1    0    0  501    0 -0.00000000000E+00 -0.00000000000E+00 -0.47790969942E+02  0.47790970207E+02  0.50400000000E-02 0. -1.
          2    1    1    2    0  502 -0.14573668467E+02 -0.14425018262E+02  0.44633571513E+01  0.20985579049E+02  0.25500000000E-02 0.  1.
         -2    1    1    2  502    0  0.14573668467E+02  0.14425018262E+02 -0.36870648401E+02  0.42189070676E+02  0.25500000000E-02 0.  1.
<mgrwt>
<rscale>  0 0.54229179E+02</rscale>
<asrwt>0</asrwt>
<pdfrwt beam="1">  1        1 0.23667199E-02 0.54229179E+02</pdfrwt>
<pdfrwt beam="2">  1       -1 0.73524569E-02 0.54229179E+02</pdfrwt>
<totfact> 0.33626773E+05</totfact>
</mgrwt>
</event>
<event>
 4    1  0.1893769E-002  0.4432552E+02  0.7818608E-02  0.1478597E+00
         -1   -1    0    0  501    0 -0.00000000000E+00  0.00000000000E+00  0.26933004274E+01  0.26933051431E+01  0.50400000000E-02 0.  1.
          1   -1    0    0    0  501  0.00000000000E+00 -0.00000000000E+00 -0.18237378313E+03  0.18237378320E+03  0.50400000000E-02 0.  1.
          2    1    1    2    0  502  0.68600373602E+00  0.21907169072E+02 -0.10355694751E+03  0.10585100870E+03  0.25500000000E-02 0.  1.
         -2    1    1    2  502    0 -0.68600373602E+00 -0.21907169072E+02 -0.76123535195E+02  0.79216079649E+02  0.25500000000E-02 0.  1.
<mgrwt>
<rscale>  0 0.44325515E+02</rscale>
<asrwt>0</asrwt>
<pdfrwt beam="2">  1        1 0.28057496E-01 0.44325515E+02</pdfrwt>
<pdfrwt beam="1">  1       -1 0.41435442E-03 0.44325515E+02</pdfrwt>
<totfact> 0.74659613E+05</totfact>
</mgrwt>
</event>
<event>
 4    1  0.1893769E-002  0.7613008E+02  0.7818608E-02  0.1340407E+00
         -1   -1    0    0  501    0 -0.00000000000E+00  0.00000000000E+00  0.10245214829E+01  0.10245338796E+01  0.50400000000E-02 0. -1.
          1   -1    0    0    0  501  0.00000000000E+00 -0.00000000000E+00 -0.14142586196E+04  0.14142586197E+04  0.50400000000E-02 0. -1.
          2    1    1    2    0  502 -0.37380418570E+02 -0.43634328307E+01 -0.81278047817E+03  0.81365130181E+03  0.25500000000E-02 0. -1.
         -2    1    1    2  502    0  0.37380418570E+02  0.43634328307E+01 -0.60045361999E+03  0.60163185172E+03  0.25500000000E-02 0. -1.
<mgrwt>
<rscale>  0 0.76130076E+02</rscale>
<asrwt>0</asrwt>
<pdfrwt beam="2">  1        1 0.21757669E+00 0.76130076E+02</pdfrwt>
<pdfrwt beam="1">  1       -1 0.15762078E-03 0.76130076E+02</pdfrwt>
<totfact> 0.18556911E+05</totfact>
</mgrwt>
</event>
<event>
 4    1  0.1893769E-002  0.6311674E+02  0.7818608E-02  0.1385199E+00
          1   -1    0    0    0  501  0.00000000000E+00  0.00000000000E+00  0.18546088927E+03  0.18546088934E+03  0.50400000000E-02 0. -1.
         -1   -1    0    0  501    0 -0.00000000000E+00 -0.00000000000E+00 -0.53700290365E+01  0.53700314017E+01  0.50400000000E-02 0. -1.
          2    1    1    2    0  502  0.22709655105E+02  0.15601703764E+02  0.43520581695E+02  0.51509053893E+02  0.25500000000E-02 0. -1.
         -2    1    1    2  502    0 -0.22709655105E+02 -0.15601703764E+02  0.13657027854E+03  0.13932186685E+03  0.25500000000E-02 0. -1.
<mgrwt>
<rscale>  0 0.63116736E+02</rscale>
<asrwt>0</asrwt>
<pdfrwt beam="1">  1        1 0.28532448E-01 0.63116736E+02</pdfrwt>
<pdfrwt beam="2">  1       -1 0.82615841E-03 0.63116736E+02</pdfrwt>
<totfact> 0.30700220E+05</totfact>
</mgrwt>
</event>
<event>
 4    1  0.1893769E-002  0.7482091E+02  0.7818608E-02  0.1344426E+00
          1   -1    0    0    0  501  0.00000000000E+00  0.00000000000E+00  0.12607448824E+02  0.12607449831E+02  0.50400000000E-02 0.  1.
         -1   -1    0    0  501    0 -0.00000000000E+00 -0.00000000000E+00 -0.11100915048E+03  0.11100915059E+03  0.50400000000E-02 0.  1.
          2    1    1    2    0  502  0.28455223444E+01 -0.37301406141E+02 -0.49571573229E+02  0.62103403904E+02  0.25500000000E-02 0.  1.
         -2    1    1    2  502    0 -0.28455223444E+01  0.37301406141E+02 -0.48830128424E+02  0.61513196519E+02  0.25500000000E-02 0.  1.
<mgrwt>
<rscale>  0 0.74820913E+02</rscale>
<asrwt>0</asrwt>
<pdfrwt beam="1">  1        1 0.19396077E-02 0.74820913E+02</pdfrwt>
<pdfrwt beam="2">  1       -1 0.17078330E-01 0.74820913E+02</pdfrwt>
<totfact> 0.13254661E+05</totfact>
</mgrwt>
</event>
<event>
 4    1  0.1893769E-002  0.5223959E+02  0.7818608E-02  0.1433623E+00
         -1   -1    0    0  501    0 -0.00000000000E+00  0.00000000000E+00  0.10901008217E+04  0.10901008217E+04  0.50400000000E-02 0. -1.
          1   -1    0    0    0  501  0.00000000000E+00 -0.00000000000E+00 -0.62584352025E+00  0.62586381381E+00  0.50400000000E-02 0. -1.
          2    1    1    2    0  502  0.19627039789E+02 -0.12677697136E+02  0.30097751676E+03  0.30188310701E+03  0.25500000000E-02 0.  1.
         -2    1    1    2  502    0 -0.19627039789E+02  0.12677697136E+02  0.78849746143E+03  0.78884357853E+03  0.25500000000E-02 0.  1.
<mgrwt>
<rscale>  0 0.52239587E+02</rscale>
<asrwt>0</asrwt>
<pdfrwt beam="2">  1        1 0.96287025E-04 0.52239587E+02</pdfrwt>
<pdfrwt beam="1">  1       -1 0.16770461E+00 0.52239587E+02</pdfrwt>
<totfact> 0.95857628E+04</totfact>
</mgrwt>
</event>
<event>
 4    1  0.1893769E-002  0.5653994E+02  0.7818608E-02  0.1412954E+00
          1   -1    0    0    0  501  0.00000000000E+00  0.00000000000E+00  0.45339756845E+01  0.45339784858E+01  0.50400000000E-02 0. -1.
         -1   -1    0    0  501    0 -0.00000000000E+00 -0.00000000000E+00 -0.17626712807E+03  0.17626712814E+03  0.50400000000E-02 0. -1.
          2    1    1    2    0  502 -0.46442913045E+01 -0.24360865181E+02 -0.42470034248E+02  0.49180534865E+02  0.25500000000E-02 0. -1.
         -2    1    1    2  502    0  0.46442913045E+01  0.24360865181E+02 -0.12926311814E+03  0.13162057176E+03  0.25500000000E-02 0. -1.
<mgrwt>
<rscale>  0 0.56539937E+02</rscale>
<asrwt>0</asrwt>
<pdfrwt beam="1">  1        1 0.69753508E-03 0.56539937E+02</pdfrwt>
<pdfrwt beam="2">  1       -1 0.27118015E-01 0.56539937E+02</pdfrwt>
<totfact> 0.24395567E+05</totfact>
</mgrwt>
</event>
<event>
 4    1  0.1893769E-002  0.6493050E+02  0.7818608E-02  0.1378233E+00
         -1   -1    0    0  501    0 -0.00000000000E+00  0.00000000000E+00  0.32299407425E+03  0.32299407429E+03  0.50400000000E-02 0. -1.
          1   -1    0    0    0  501  0.00000000000E+00 -0.00000000000E+00 -0.32631927177E+01  0.32631966098E+01  0.50400000000E-02 0. -1.
          2    1    1    2    0  502  0.23316622278E+02  0.12331532534E+02  0.25497215660E+03  0.25633285434E+03  0.25500000000E-02 0.  1.
         -2    1    1    2  502    0 -0.23316622278E+02 -0.12331532534E+02  0.64758724941E+02  0.69924416562E+02  0.25500000000E-02 0.  1.
<mgrwt>
<rscale>  0 0.64930503E+02</rscale>
<asrwt>0</asrwt>
<pdfrwt beam="2">  1        1 0.50202982E-03 0.64930503E+02</pdfrwt>
<pdfrwt beam="1">  1       -1 0.49691409E-01 0.64930503E+02</pdfrwt>
<totfact> 0.14124876E+05</totfact>
</mgrwt>
</event>
<event>
 4    1  0.1893769E-002  0.8226014E+02  0.7818608E-02  0.1322757E+00
          1   -1    0    0    0  501  0.00000000000E+00  0.00000000000E+00  0.61522141520E+02  0.61522141726E+02  0.50400000000E-02 0.  1.
         -1   -1    0    0  501    0 -0.00000000000E+00 -0.00000000000E+00 -0.27497134076E+02  0.27497134537E+02  0.50400000000E-02 0.  1.
          2    1    1    2    0  502 -0.37140718297E+02  0.76552494837E+01  0.34247425355E+02  0.51097181431E+02  0.25500000000E-02 0. -1.
         -2    1    1    2  502    0  0.37140718297E+02 -0.76552494837E+01 -0.22241791089E+00  0.37922094833E+02  0.25500000000E-02 0. -1.
<mgrwt>
<rscale>  0 0.82260139E+02</rscale>
<asrwt>0</asrwt>
<pdfrwt beam="1">  1        1 0.94649449E-02 0.82260139E+02</pdfrwt>
<pdfrwt beam="2">  1       -1 0.42303284E-02 0.82260139E+02</pdfrwt>
<totfact> 0.12836197E+05</totfact>
</mgrwt>
</event>
<event>
 4    1  0.1893769E-002  0.6037848E+02  0.7818608E-02  0.1396250E+00
          1   -1    0    0    0  501  0.00000000000E+00  0.00000000000E+00  0.28417644583E+03  0.28417644587E+03  0.50400000000E-02 0. -1.
         -1   -1    0    0  501    0 -0.00000000000E+00 -0.00000000000E+00 -0.32071258440E+01  0.32071298042E+01  0.50400000000E-02 0. -1.
          2    1    1    2    0  502 -0.29517482488E+02  0.23564075371E+01  0.16846416449E+03  0.17104680398E+03  0.25500000000E-02 0. -1.
         -2    1    1    2  502    0  0.29517482488E+02 -0.23564075371E+01  0.11250515549E+03  0.11633677169E+03  0.25500000000E-02 0. -1.
<mgrwt>
<rscale>  0 0.60378480E+02</rscale>
<asrwt>0</asrwt>
<pdfrwt beam="1">  1        1 0.43719468E-01 0.60378480E+02</pdfrwt>
<pdfrwt beam="2">  1       -1 0.49340412E-03 0.60378480E+02</pdfrwt>
<totfact> 0.37151787E+05</totfact>
</mgrwt>
</event>
<event>
 4    1  0.1893769E-002  0.5578457E+02  0.7818608E-02  0.1416425E+00
          1   -1    0    0    0  501  0.00000000000E+00  0.00000000000E+00  0.30668312961E+03  0.30668312965E+03  0.50400000000E-02 0.  1.
         -1   -1    0    0  501    0 -0.00000000000E+00 -0.00000000000E+00 -0.25367507639E+01  0.25367557706E+01  0.50400000000E-02 0.  1.
          2    1    1    2    0  502 -0.17049066191E+02  0.18217338349E+02  0.22118162595E+03  0.22258448675E+03  0.25500000000E-02 0.  1.
         -2    1    1    2  502    0  0.17049066191E+02 -0.18217338349E+02  0.82964752890E+02  0.86635398672E+02  0.25500000000E-02 0.  1.
<mgrwt>
<rscale>  0 0.55784566E+02</rscale>
<asrwt>0</asrwt>
<pdfrwt beam="1">  1        1 0.47181990E-01 0.55784566E+02</pdfrwt>
<pdfrwt beam="2">  1       -1 0.39026998E-03 0.55784566E+02</pdfrwt>
<totfact> 0.46035526E+05</totfact>
</mgrwt>
</event>
<event>
 4    1  0.1893769E-002  0.7246276E+02  0.7818608E-02  0.1351913E+00
         -1   -1    0    0  501    0 -0.00000000000E+00  0.00000000000E+00  0.39615801919E+01  0.39615833979E+01  0.50400000000E-02 0.  1.
          1   -1    0    0    0  501  0.00000000000E+00 -0.00000000000E+00 -0.33136079375E+03  0.33136079379E+03  0.50400000000E-02 0.  1.
          2    1    1    2    0  502  0.21155312103E+01 -0.36158317238E+02 -0.15952581422E+03  0.16358601647E+03  0.25500000000E-02 0.  1.
         -2    1    1    2  502    0 -0.21155312103E+01  0.36158317238E+02 -0.16787339935E+03  0.17173636072E+03  0.25500000000E-02 0.  1.
<mgrwt>
<rscale>  0 0.72462760E+02</rscale>
<asrwt>0</asrwt>
<pdfrwt beam="2">  1        1 0.50978562E-01 0.72462760E+02</pdfrwt>
<pdfrwt beam="1">  1       -1 0.60947438E-03 0.72462760E+02</pdfrwt>
<totfact> 0.23878906E+05</totfact>
</mgrwt>
</event>
<event>
 4    1  0.1893769E-002  0.4611712E+02  0.7818608E-02  0.1467486E+00
          1   -1    0    0    0  501  0.00000000000E+00  0.00000000000E+00  0.73406668896E+01  0.73406686198E+01  0.50400000000E-02 0. -1.
         -1   -1    0    0  501    0 -0.00000000000E+00 -0.00000000000E+00 -0.72431716552E+02  0.72431716728E+02  0.50400000000E-02 0. -1.
          2    1    1    2    0  502 -0.18892662733E+02  0.13213785597E+02 -0.31852883134E+02  0.39321024979E+02  0.25500000000E-02 0. -1.
         -2    1    1    2  502    0  0.18892662733E+02 -0.13213785597E+02 -0.33238166529E+02  0.40451360369E+02  0.25500000000E-02 0. -1.
<mgrwt>
<rscale>  0 0.46117120E+02</rscale>
<asrwt>0</asrwt>
<pdfrwt beam="1">  1        1 0.11293336E-02 0.46117120E+02</pdfrwt>
<pdfrwt beam="2">  1       -1 0.11143341E-01 0.46117120E+02</pdfrwt>
<totfact> 0.47648204E+05</totfact>
</mgrwt>
</event>
<event>
 4    1  0.1893769E-002  0.4302639E+02  0.7818608E-02  0.1487052E+00
          1   -1    0    0    0  501  0.00000000000E+00  0.00000000000E+00  0.13905500219E+03  0.13905500228E+03  0.50400000000E-02 0. -1.
         -1   -1    0    0  501    0 -0.00000000000E+00 -0.00000000000E+00 -0.33283031243E+01  0.33283069403E+01  0.50400000000E-02 0. -1.
          2    1    1    2    0  502 -0.17384735079E+02 -0.10060365342E+02  0.42363642816E+02  0.46884093291E+02  0.25500000000E-02 0. -1.
         -2    1    1    2  502    0  0.17384735079E+02  0.10060365342E+02  0.93363056253E+02  0.95499215934E+02  0.25500000000E-02 0. -1.
<mgrwt>
<rscale>  0 0.43026386E+02</rscale>
<asrwt>0</asrwt>
<pdfrwt beam="1">  1        1 0.21393076E-01 0.43026386E+02</pdfrwt>
<pdfrwt beam="2">  1       -1 0.51204696E-03 0.43026386E+02</pdfrwt>
<totfact> 0.76978738E+05</totfact>
</mgrwt>
</event>
<event>
 4    1  0.1893769E-002  0.8064958E+02  0.7818608E-02  0.1327218E+00
         -1   -1    0    0  501    0 -0.00000000000E+00  0.00000000000E+00  0.15804167384E+03  0.15804167392E+03  0.50400000000E-02 0. -1.
          1   -1    0    0    0  501  0.00000000000E+00 -0.00000000000E+00 -0.10288986948E+02  0.10288988182E+02  0.50400000000E-02 0. -1.
          2    1    1    2    0  502 -0.16912369189E+02 -0.18169574676E+02  0.14020575219E+03  0.14238614620E+03  0.25500000000E-02 0.  1.
         -2    1    1    2  502    0  0.16912369189E+02  0.18169574676E+02  0.75469346995E+01  0.25944515901E+02  0.25500000000E-02 0.  1.
<mgrwt>
<rscale>  0 0.80649584E+02</rscale>
<asrwt>0</asrwt>
<pdfrwt beam="2">  1        1 0.15829211E-02 0.80649584E+02</pdfrwt>
<pdfrwt beam="1">  1       -1 0.24314104E-01 0.80649584E+02</pdfrwt>
<totfact> 0.10145912E+05</totfact>
</mgrwt>
</event>
<event>
 4    1  0.1893769E-002  0.5409944E+02  0.7818608E-02  0.1424406E+00
          1   -1    0    0    0  501  0.00000000000E+00  0.00000000000E+00  0.12127002886E+02  0.12127003933E+02  0.50400000000E-02 0.  1.
         -1   -1    0    0  501    0 -0.00000000000E+00 -0.00000000000E+00 -0.60335367355E+02  0.60335367566E+02  0.50400000000E-02 0.  1.
          2    1    1    2    0  502 -0.26789249074E+02 -0.10118332689E+01 -0.28933478124E+02  0.39444059569E+02  0.25500000000E-02 0. -1.
         -2    1    1    2  502    0  0.26789249074E+02  0.10118332689E+01 -0.19274886346E+02  0.33018311929E+02  0.25500000000E-02 0. -1.
<mgrwt>
<rscale>  0 0.54099435E+02</rscale>
<asrwt>0</asrwt>
<pdfrwt beam="1">  1        1 0.18656929E-02 0.54099435E+02</pdfrwt>
<pdfrwt beam="2">  1       -1 0.92823641E-02 0.54099435E+02</pdfrwt>
<totfact> 0.32913048E+05</totfact>
</mgrwt>
</event>
<event>
 4    1  0.1893769E-002  0.5784942E+02  0.7818608E-02  0.1407085E+00
         -1   -1    0    0  501    0 -0.00000000000E+00  0.00000000000E+00  0.28625836700E+02  0.28625837144E+02  0.50400000000E-02 0.  1.
          1   -1    0    0    0  501  0.00000000000E+00 -0.00000000000E+00 -0.29226701611E+02  0.29226702045E+02  0.50400000000E-02 0.  1.
          2    1    1    2    0  502 -0.55708059547E+01  0.28248670828E+02  0.24597026491E+01  0.28897602429E+02  0.25500000000E-02 0.  1.
         -2    1    1    2  502    0  0.55708059547E+01 -0.28248670828E+02 -0.30605675595E+01  0.28954936760E+02  0.25500000000E-02 0.  1.
<mgrwt>
<rscale>  0 0.57849419E+02</rscale>
<asrwt>0</asrwt>
<pdfrwt beam="2">  1        1 0.44964157E-02 0.57849419E+02</pdfrwt>
<pdfrwt beam="1">  1       -1 0.44039749E-02 0.57849419E+02</pdfrwt>
<totfact> 0.30269518E+05</totfact>
</mgrwt>
</event>
<event>
 4    1  0.1893769E-002  0.5856283E+02  0.7818608E-02  0.1403964E+00
          1   -1    0    0    0  501  0.00000000000E+00  0.00000000000E+00  0.16542368127E+01  0.16542444904E+01  0.50400000000E-02 0.  1.
         -1   -1    0    0  501    0 -0.00000000000E+00 -0.00000000000E+00 -0.51830502410E+03  0.51830502412E+03  0.50400000000E-02 0.  1.
          2    1    1    2    0  502  0.15818213652E+02  0.24641110359E+02 -0.25861228302E+03  0.26026469822E+03  0.25500000000E-02 0. -1.
         -2    1    1    2  502    0 -0.15818213652E+02 -0.24641110359E+02 -0.25803850427E+03  0.25969457040E+03  0.25500000000E-02 0. -1.
<mgrwt>
<rscale>  0 0.58562830E+02</rscale>
<asrwt>0</asrwt>
<pdfrwt beam="1">  1        1 0.25449898E-03 0.58562830E+02</pdfrwt>
<pdfrwt beam="2">  1       -1 0.79739106E-01 0.58562830E+02</pdfrwt>
<totfact> 0.14371109E+05</totfact>
</mgrwt>
</event>
<event>
 4    1  0.1893769E-002  0.8159328E+02  0.7818608E-02  0.1324590E+00
         -1   -1    0    0  501    0 -0.00000000000E+00  0.00000000000E+00  0.24088180299E+03  0.24088180304E+03  0.50400000000E-02 0. -1.
          1   -1    0    0    0  501  0.00000000000E+00 -0.00000000000E+00 -0.69094694705E+01  0.69094713087E+01  0.50400000000E-02 0. -1.
          2    1    1    2    0  502  0.91823653997E+01  0.39149084125E+02  0.96077971732E+02  0.10415346024E+03  0.25500000000E-02 0. -1.
         -2    1    1    2  502    0 -0.91823653997E+01 -0.39149084125E+02  0.13789436178E+03  0.14363781410E+03  0.25500000000E-02 0. -1.
<mgrwt>
<rscale>  0 0.81593277E+02</rscale>
<asrwt>0</asrwt>
<pdfrwt beam="2">  1        1 0.10629956E-02 0.81593277E+02</pdfrwt>
<pdfrwt beam="1">  1       -1 0.37058735E-01 0.81593277E+02</pdfrwt>
<totfact> 0.87520187E+04</totfact>
</mgrwt>
</event>
<event>
 4    1  0.1893769E-002  0.7268874E+02  0.7818608E-02  0.1351181E+00
         -1   -1    0    0  501    0 -0.00000000000E+00  0.00000000000E+00  0.51698442579E+01  0.51698467146E+01  0.50400000000E-02 0.  1.
          1   -1    0    0    0  501  0.00000000000E+00 -0.00000000000E+00 -0.25550344880E+03  0.25550344885E+03  0.50400000000E-02 0.  1.
          2    1    1    2    0  502  0.11859952369E+02 -0.31292596953E+02 -0.17601293659E+03  0.17916595365E+03  0.25500000000E-02 0. -1.
         -2    1    1    2  502    0 -0.11859952369E+02  0.31292596953E+02 -0.74320667949E+02  0.81507341909E+02  0.25500000000E-02 0. -1.
<mgrwt>
<rscale>  0 0.72688744E+02</rscale>
<asrwt>0</asrwt>
<pdfrwt beam="2">  1        1 0.39308213E-01 0.72688744E+02</pdfrwt>
<pdfrwt beam="1">  1       -1 0.79536105E-03 0.72688744E+02</pdfrwt>
<totfact> 0.22579616E+05</totfact>
</mgrwt>
</event>
<event>
 4    1  0.1893769E-002  0.4504329E+02  0.7818608E-02  0.1474072E+00
         -1   -1    0    0  501    0 -0.00000000000E+00  0.00000000000E+00  0.36842533079E+00  0.36845980237E+00  0.50400000000E-02 0. -1.
          1   -1    0    0    0  501  0.00000000000E+00 -0.00000000000E+00 -0.13766715445E+04  0.13766715445E+04  0.50400000000E-02 0. -1.
          2    1    1    2    0  502  0.10652513645E+02  0.16966065378E+02 -0.10027571839E+04  0.10029572739E+04  0.25500000000E-02 0.  1.
         -2    1    1    2  502    0 -0.10652513645E+02 -0.16966065378E+02 -0.37354593528E+03  0.37408273041E+03  0.25500000000E-02 0.  1.
<mgrwt>
<rscale>  0 0.45043286E+02</rscale>
<asrwt>0</asrwt>
<pdfrwt beam="2">  1        1 0.21179151E+00 0.45043286E+02</pdfrwt>
<pdfrwt beam="1">  1       -1 0.56684575E-04 0.45043286E+02</pdfrwt>
<totfact> 0.71376195E+05</totfact>
</mgrwt>
</event>
<event>
 4    1  0.1893769E-002  0.9918781E+02  0.7818608E-02  0.1282013E+00
         -1   -1    0    0  501    0 -0.00000000000E+00  0.00000000000E+00  0.44919436527E+03  0.44919436530E+03  0.50400000000E-02 0. -1.
          1   -1    0    0    0  501  0.00000000000E+00 -0.00000000000E+00 -0.54754802998E+01  0.54754826194E+01  0.50400000000E-02 0. -1.
          2    1    1    2    0  502 -0.44521870991E+02 -0.16121532765E+02  0.28945562355E+03  0.29330301537E+03  0.25500000000E-02 0. -1.
         -2    1    1    2  502    0  0.44521870991E+02  0.16121532765E+02  0.15426326142E+03  0.16136683255E+03  0.25500000000E-02 0. -1.
<mgrwt>
<rscale>  0 0.99187810E+02</rscale>
<asrwt>0</asrwt>
<pdfrwt beam="2">  1        1 0.84238162E-03 0.99187810E+02</pdfrwt>
<pdfrwt beam="1">  1       -1 0.69106837E-01 0.99187810E+02</pdfrwt>
<totfact> 0.40144951E+04</totfact>
</mgrwt>
</event>
<event>
 4    1  0.1893769E-002  0.7458221E+02  0.7818608E-02  0.1345170E+00
         -1   -1    0    0  501    0 -0.00000000000E+00  0.00000000000E+00  0.39649439104E+02  0.39649439424E+02  0.50400000000E-02 0.  1.
          1   -1    0    0    0  501  0.00000000000E+00 -0.00000000000E+00 -0.35073044960E+02  0.35073045322E+02  0.50400000000E-02 0.  1.
          2    1    1    2    0  502  0.23863131324E+02 -0.88416706669E+00 -0.26408225391E+02  0.35603724001E+02  0.25500000000E-02 0.  1.
         -2    1    1    2  502    0 -0.23863131324E+02  0.88416706669E+00  0.30984619535E+02  0.39118760744E+02  0.25500000000E-02 0.  1.
<mgrwt>
<rscale>  0 0.74582212E+02</rscale>
<asrwt>0</asrwt>
<pdfrwt beam="2">  1        1 0.53958531E-02 0.74582212E+02</pdfrwt>
<pdfrwt beam="1">  1       -1 0.60999138E-02 0.74582212E+02</pdfrwt>
<totfact> 0.15575241E+05</totfact>
</mgrwt>
</event>
<event>
 4    1  0.1893769E-002  0.4532097E+02  0.7818608E-02  0.1472348E+00
          1   -1    0    0    0  501  0.00000000000E+00  0.00000000000E+00  0.14467077925E+02  0.14467078803E+02  0.50400000000E-02 0.  1.
         -1   -1    0    0  501    0 -0.00000000000E+00 -0.00000000000E+00 -0.35494209179E+02  0.35494209537E+02  0.50400000000E-02 0.  1.
          2    1    1    2    0  502 -0.11527618478E+02 -0.18389492613E+02 -0.17695019291E+02  0.28003091625E+02  0.25500000000E-02 0.  1.
         -2    1    1    2  502    0  0.11527618478E+02  0.18389492613E+02 -0.33321119635E+01  0.21958196715E+02  0.25500000000E-02 0.  1.
<mgrwt>
<rscale>  0 0.45320967E+02</rscale>
<asrwt>0</asrwt>
<pdfrwt beam="1">  1        1 0.22257044E-02 0.45320967E+02</pdfrwt>
<pdfrwt beam="2">  1       -1 0.54606476E-02 0.45320967E+02</pdfrwt>
<totfact> 0.53778734E+05</totfact>
</mgrwt>
</event>
<event>
 4    1  0.1893769E-002  0.6261493E+02  0.7818608E-02  0.1387175E+00
          1   -1    0    0    0  501  0.00000000000E+00  0.00000000000E+00  0.89491498567E+02  0.89491498708E+02  0.50400000000E-02 0. -1.
         -1   -1    0    0  501    0 -0.00000000000E+00 -0.00000000000E+00 -0.10952518365E+02  0.10952519525E+02  0.50400000000E-02 0. -1.
          2    1    1    2    0  502  0.15129768934E+01  0.30312327815E+02  0.26944506773E+02  0.40584883496E+02  0.25500000000E-02 0. -1.
         -2    1    1    2  502    0 -0.15129768934E+01 -0.30312327815E+02  0.51594473428E+02  0.59859134737E+02  0.25500000000E-02 0. -1.
<mgrwt>
<rscale>  0 0.62614929E+02</rscale>
<asrwt>0</asrwt>
<pdfrwt beam="1">  1        1 0.13767923E-01 0.62614929E+02</pdfrwt>
<pdfrwt beam="2">  1       -1 0.16850029E-02 0.62614929E+02</pdfrwt>
<totfact> 0.27946126E+05</totfact>
</mgrwt>
</event>
<event>
 4    1  0.1893769E-002  0.5558899E+02  0.7818608E-02  0.1417334E+00
         -1   -1    0    0  501    0 -0.00000000000E+00  0.00000000000E+00  0.60137921112E+02  0.60137921323E+02  0.50400000000E-02 0.  1.
          1   -1    0    0    0  501  0.00000000000E+00 -0.00000000000E+00 -0.12846033919E+02  0.12846034908E+02  0.50400000000E-02 0.  1.
          2    1    1    2    0  502  0.16305821114E+02  0.21924963547E+02  0.30334111919E+02  0.40825753895E+02  0.25500000000E-02 0.  1.
         -2    1    1    2  502    0 -0.16305821114E+02 -0.21924963547E+02  0.16957775274E+02  0.32158202336E+02  0.25500000000E-02 0.  1.
<mgrwt>
<rscale>  0 0.55588985E+02</rscale>
<asrwt>0</asrwt>
<pdfrwt beam="2">  1        1 0.19763130E-02 0.55588985E+02</pdfrwt>
<pdfrwt beam="1">  1       -1 0.92519880E-02 0.55588985E+02</pdfrwt>
<totfact> 0.30779980E+05</totfact>
</mgrwt>
</event>
<event>
 4    1  0.1893769E-002  0.7591324E+02  0.7818608E-02  0.1341066E+00
          1   -1    0    0    0  501  0.00000000000E+00  0.00000000000E+00  0.18851655128E+01  0.18851722500E+01  0.50400000000E-02 0. -1.
         -1   -1    0    0  501    0 -0.00000000000E+00 -0.00000000000E+00 -0.76423126685E+03  0.76423126687E+03  0.50400000000E-02 0. -1.
          2    1    1    2    0  502  0.25308674680E+02  0.16906285622E+02 -0.15229291516E+03  0.15530448648E+03  0.25500000000E-02 0. -1.
         -2    1    1    2  502    0 -0.25308674680E+02 -0.16906285622E+02 -0.61005318618E+03  0.61081195264E+03  0.25500000000E-02 0. -1.
<mgrwt>
<rscale>  0 0.75913240E+02</rscale>
<asrwt>0</asrwt>
<pdfrwt beam="1">  1        1 0.29002659E-03 0.75913240E+02</pdfrwt>
<pdfrwt beam="2">  1       -1 0.11757379E+00 0.75913240E+02</pdfrwt>
<totfact> 0.54973069E+04</totfact>
</mgrwt>
</event>
<event>
 4    1  0.1893769E-002  0.6913332E+02  0.7818608E-02  0.1363065E+00
         -1   -1    0    0  501    0 -0.00000000000E+00  0.00000000000E+00  0.62800752476E+00  0.62802774839E+00  0.50400000000E-02 0. -1.
          1   -1    0    0    0  501  0.00000000000E+00 -0.00000000000E+00 -0.19025802674E+04  0.19025802674E+04  0.50400000000E-02 0. -1.
          2    1    1    2    0  502  0.27168279726E+02  0.20547690748E+02 -0.11127480640E+04  0.11132693192E+04  0.25500000000E-02 0. -1.
         -2    1    1    2  502    0 -0.27168279726E+02 -0.20547690748E+02 -0.78920419583E+03  0.78993897596E+03  0.25500000000E-02 0. -1.
<mgrwt>
<rscale>  0 0.69133320E+02</rscale>
<asrwt>0</asrwt>
<pdfrwt beam="2">  1        1 0.29270004E+00 0.69133320E+02</pdfrwt>
<pdfrwt beam="1">  1       -1 0.96619622E-04 0.69133320E+02</pdfrwt>
<totfact> 0.17690354E+05</totfact>
</mgrwt>
</event>
<event>
 4    1  0.1893769E-002  0.7026090E+02  0.7818608E-02  0.1359208E+00
          1   -1    0    0    0  501  0.00000000000E+00  0.00000000000E+00  0.11822085919E+01  0.11822193352E+01  0.50400000000E-02 0. -1.
         -1   -1    0    0  501    0 -0.00000000000E+00 -0.00000000000E+00 -0.10439298843E+04  0.10439298843E+04  0.50400000000E-02 0. -1.
          2    1    1    2    0  502 -0.32253846167E+02 -0.58533799064E+01 -0.70927641928E+03  0.71003352851E+03  0.25500000000E-02 0. -1.
         -2    1    1    2  502    0  0.32253846167E+02  0.58533799064E+01 -0.33347125646E+03  0.33507857518E+03  0.25500000000E-02 0. -1.
<mgrwt>
<rscale>  0 0.70260899E+02</rscale>
<asrwt>0</asrwt>
<pdfrwt beam="1">  1        1 0.18187991E-03 0.70260899E+02</pdfrwt>
<pdfrwt beam="2">  1       -1 0.16060386E+00 0.70260899E+02</pdfrwt>
<totfact> 0.47888075E+04</totfact>
</mgrwt>
</event>
<event>
 4    1  0.1893769E-002  0.2787258E+03  0.7818608E-02  0.1096387E+00
         -1   -1    0    0  501    0 -0.00000000000E+00  0.00000000000E+00  0.28439215968E+02  0.28439216415E+02  0.50400000000E-02 0. -1.
          1   -1    0    0    0  501  0.00000000000E+00 -0.00000000000E+00 -0.68293080151E+03  0.68293080153E+03  0.50400000000E-02 0. -1.
          2    1    1    2    0  502  0.18777030678E+02  0.52329311251E+02 -0.65340218371E+03  0.65576317934E+03  0.25500000000E-02 0.  1.
         -2    1    1    2  502    0 -0.18777030678E+02 -0.52329311251E+02 -0.10894018382E+01  0.55606838607E+02  0.25500000000E-02 0.  1.
<mgrwt>
<rscale>  0 0.27872579E+03</rscale>
<asrwt>0</asrwt>
<pdfrwt beam="2">  1        1 0.10506627E+00 0.27872579E+03</pdfrwt>
<pdfrwt beam="1">  1       -1 0.43752645E-02 0.27872579E+03</pdfrwt>
<totfact> 0.62709613E+03</totfact>
</mgrwt>
</event>
<event>
 4    1  0.1893769E-002  0.1202830E+03  0.7818608E-02  0.1242631E+00
          1   -1    0    0    0  501  0.00000000000E+00  0.00000000000E+00  0.19436754991E+03  0.19436754997E+03  0.50400000000E-02 0.  1.
         -1   -1    0    0  501    0 -0.00000000000E+00 -0.00000000000E+00 -0.18609074906E+02  0.18609075589E+02  0.50400000000E-02 0.  1.
          2    1    1    2    0  502  0.38429115909E+02 -0.58935363180E+01  0.16912526992E+03  0.17353641593E+03  0.25500000000E-02 0.  1.
         -2    1    1    2  502    0 -0.38429115909E+02  0.58935363180E+01  0.66332050789E+01  0.39440209635E+02  0.25500000000E-02 0.  1.
<mgrwt>
<rscale>  0 0.12028301E+03</rscale>
<asrwt>0</asrwt>
<pdfrwt beam="1">  1        1 0.29902700E-01 0.12028301E+03</pdfrwt>
<pdfrwt beam="2">  1       -1 0.28629347E-02 0.12028301E+03</pdfrwt>
<totfact> 0.55311149E+04</totfact>
</mgrwt>
</event>
<event>
 4    1  0.1893769E-002  0.1155049E+03  0.7818608E-02  0.1250702E+00
         -1   -1    0    0  501    0 -0.00000000000E+00  0.00000000000E+00  0.34543105231E+01  0.34543141999E+01  0.50400000000E-02 0. -1.
          1   -1    0    0    0  501  0.00000000000E+00 -0.00000000000E+00 -0.96555906540E+03  0.96555906541E+03  0.50400000000E-02 0. -1.
          2    1    1    2    0  502 -0.55245601921E+02 -0.97142475048E+01 -0.36574822754E+03  0.37002460606E+03  0.25500000000E-02 0. -1.
         -2    1    1    2  502    0  0.55245601921E+02  0.97142475048E+01 -0.59635652733E+03  0.59898877354E+03  0.25500000000E-02 0. -1.
<mgrwt>
<rscale>  0 0.11550485E+03</rscale>
<asrwt>0</asrwt>
<pdfrwt beam="2">  1        1 0.14854733E+00 0.11550485E+03</pdfrwt>
<pdfrwt beam="1">  1       -1 0.53143344E-03 0.11550485E+03</pdfrwt>
<totfact> 0.72915683E+04</totfact>
</mgrwt>
</event>
<event>
 4    1  0.1893769E-002  0.1642358E+03  0.7818608E-02  0.1183996E+00
         -1   -1    0    0  501    0 -0.00000000000E+00  0.00000000000E+00  0.19635435351E+02  0.19635435998E+02  0.50400000000E-02 0.  1.
          1   -1    0    0    0  501  0.00000000000E+00 -0.00000000000E+00 -0.34342755475E+03  0.34342755478E+03  0.50400000000E-02 0.  1.
          2    1    1    2    0  502 -0.74514291660E+02  0.12784999050E+02 -0.91034945362E+02  0.11833510530E+03  0.25500000000E-02 0.  1.
         -2    1    1    2  502    0  0.74514291660E+02 -0.12784999050E+02 -0.23275717403E+03  0.24472788548E+03  0.25500000000E-02 0.  1.
<mgrwt>
<rscale>  0 0.16423580E+03</rscale>
<asrwt>0</asrwt>
<pdfrwt beam="2">  1        1 0.52835004E-01 0.16423580E+03</pdfrwt>
<pdfrwt beam="1">  1       -1 0.30208365E-02 0.16423580E+03</pdfrwt>
<totfact> 0.26130032E+04</totfact>
</mgrwt>
</event>
<event>
 4    1  0.1893769E-002  0.5550087E+02  0.7818608E-02  0.1417745E+00
         -1   -1    0    0  501    0 -0.00000000000E+00  0.00000000000E+00  0.22006937610E+03  0.22006937615E+03  0.50400000000E-02 0. -1.
          1   -1    0    0    0  501  0.00000000000E+00 -0.00000000000E+00 -0.34992889279E+01  0.34992925575E+01  0.50400000000E-02 0. -1.
          2    1    1    2    0  502  0.13210337574E+01  0.23229638463E+02  0.47363848035E+02  0.52770212626E+02  0.25500000000E-02 0. -1.
         -2    1    1    2  502    0 -0.13210337574E+01 -0.23229638463E+02  0.16920623913E+03  0.17079845609E+03  0.25500000000E-02 0. -1.
<mgrwt>
<rscale>  0 0.55500874E+02</rscale>
<asrwt>0</asrwt>
<pdfrwt beam="2">  1        1 0.53835248E-03 0.55500874E+02</pdfrwt>
<pdfrwt beam="1">  1       -1 0.33856824E-01 0.55500874E+02</pdfrwt>
<totfact> 0.24042721E+05</totfact>
</mgrwt>
</event>
<event>
 4    1  0.1893769E-002  0.6557900E+02  0.7818608E-02  0.1375807E+00
          1   -1    0    0    0  501  0.00000000000E+00  0.00000000000E+00  0.13311137295E+02  0.13311138249E+02  0.50400000000E-02 0. -1.
         -1   -1    0    0  501    0 -0.00000000000E+00 -0.00000000000E+00 -0.80770797606E+02  0.80770797763E+02  0.50400000000E-02 0. -1.
          2    1    1    2    0  502  0.38740583212E+01 -0.23565879561E+02 -0.14970477475E+01  0.23929065294E+02  0.25500000000E-02 0.  1.
         -2    1    1    2  502    0 -0.38740583212E+01  0.23565879561E+02 -0.65962612563E+02  0.70152870718E+02  0.25500000000E-02 0.  1.
<mgrwt>
<rscale>  0 0.65578998E+02</rscale>
<asrwt>0</asrwt>
<pdfrwt beam="1">  1        1 0.20478674E-02 0.65578998E+02</pdfrwt>
<pdfrwt beam="2">  1       -1 0.12426276E-01 0.65578998E+02</pdfrwt>
<totfact> 0.19542788E+05</totfact>
</mgrwt>
</event>
<event>
 4    1  0.1893769E-002  0.7539415E+02  0.7818608E-02  0.1342655E+00
         -1   -1    0    0  501    0 -0.00000000000E+00  0.00000000000E+00  0.14178172750E+01  0.14178262330E+01  0.50400000000E-02 0.  1.
          1   -1    0    0    0  501  0.00000000000E+00 -0.00000000000E+00 -0.10022906958E+04  0.10022906959E+04  0.50400000000E-02 0.  1.
          2    1    1    2    0  502  0.33543991898E+02 -0.15955165956E+02 -0.58599430309E+03  0.58717040965E+03  0.25500000000E-02 0. -1.
         -2    1    1    2  502    0 -0.33543991898E+02  0.15955165956E+02 -0.41487857547E+03  0.41653811243E+03  0.25500000000E-02 0. -1.
<mgrwt>
<rscale>  0 0.75394153E+02</rscale>
<asrwt>0</asrwt>
<pdfrwt beam="2">  1        1 0.15419800E+00 0.75394153E+02</pdfrwt>
<pdfrwt beam="1">  1       -1 0.21812723E-03 0.75394153E+02</pdfrwt>
<totfact> 0.22362176E+05</totfact>
</mgrwt>
</event>
<event>
 4    1  0.1893769E-002  0.4626931E+02  0.7818608E-02  0.1466570E+00
         -1   -1    0    0  501    0 -0.00000000000E+00  0.00000000000E+00  0.95553906230E+00  0.95555235398E+00  0.50400000000E-02 0.  1.
          1   -1    0    0    0  501  0.00000000000E+00 -0.00000000000E+00 -0.56011157060E+03  0.56011157062E+03  0.50400000000E-02 0.  1.
          2    1    1    2    0  502 -0.19443667969E+02 -0.49324124826E+01 -0.41933241309E+03  0.41981193122E+03  0.25500000000E-02 0. -1.
         -2    1    1    2  502    0  0.19443667969E+02  0.49324124826E+01 -0.13982361844E+03  0.14125519176E+03  0.25500000000E-02 0. -1.
<mgrwt>
<rscale>  0 0.46269308E+02</rscale>
<asrwt>0</asrwt>
<pdfrwt beam="2">  1        1 0.86170750E-01 0.46269308E+02</pdfrwt>
<pdfrwt beam="1">  1       -1 0.14700748E-03 0.46269308E+02</pdfrwt>
<totfact> 0.79751430E+05</totfact>
</mgrwt>
</event>
<event>
 4    1  0.1893769E-002  0.4619469E+02  0.7818608E-02  0.1467018E+00
          1   -1    0    0    0  501  0.00000000000E+00  0.00000000000E+00  0.70572166731E+00  0.70573966397E+00  0.50400000000E-02 0.  1.
         -1   -1    0    0  501    0 -0.00000000000E+00 -0.00000000000E+00 -0.75593603198E+03  0.75593603200E+03  0.50400000000E-02 0.  1.
          2    1    1    2    0  502  0.22815200549E+02 -0.20866645621E+01 -0.42564818136E+03  0.42626430985E+03  0.25500000000E-02 0. -1.
         -2    1    1    2  502    0 -0.22815200549E+02  0.20866645621E+01 -0.32958212895E+03  0.33037746182E+03  0.25500000000E-02 0. -1.
<mgrwt>
<rscale>  0 0.46194686E+02</rscale>
<asrwt>0</asrwt>
<pdfrwt beam="1">  1        1 0.10857455E-03 0.46194686E+02</pdfrwt>
<pdfrwt beam="2">  1       -1 0.11629720E+00 0.46194686E+02</pdfrwt>
<totfact> 0.19428243E+05</totfact>
</mgrwt>
</event>
<event>
 4    1  0.1893769E-002  0.7501484E+02  0.7818608E-02  0.1343825E+00
          1   -1    0    0    0  501  0.00000000000E+00  0.00000000000E+00  0.47486865678E+03  0.47486865680E+03  0.50400000000E-02 0.  1.
         -1   -1    0    0  501    0 -0.00000000000E+00 -0.00000000000E+00 -0.29625148720E+01  0.29625191591E+01  0.50400000000E-02 0.  1.
          2    1    1    2    0  502  0.36995626505E+02 -0.59793022644E+01  0.24577591909E+03  0.24861663429E+03  0.25500000000E-02 0.  1.
         -2    1    1    2  502    0 -0.36995626505E+02  0.59793022644E+01  0.22613022282E+03  0.22921454167E+03  0.25500000000E-02 0.  1.
<mgrwt>
<rscale>  0 0.75014838E+02</rscale>
<asrwt>0</asrwt>
<pdfrwt beam="1">  1        1 0.73056696E-01 0.75014838E+02</pdfrwt>
<pdfrwt beam="2">  1       -1 0.45577198E-03 0.75014838E+02</pdfrwt>
<totfact> 0.23093711E+05</totfact>
</mgrwt>
</event>
<event>
 4    1  0.1893769E-002  0.9253082E+02  0.7818608E-02  0.1296836E+00
         -1   -1    0    0  501    0 -0.00000000000E+00  0.00000000000E+00  0.53293530812E+01  0.53293554643E+01  0.50400000000E-02 0.  1.
          1   -1    0    0    0  501  0.00000000000E+00 -0.00000000000E+00 -0.40164122403E+03  0.40164122406E+03  0.50400000000E-02 0.  1.
          2    1    1    2    0  502  0.32051609235E+02 -0.18408006684E+02 -0.32054400010E+03  0.32266796614E+03  0.25500000000E-02 0.  1.
         -2    1    1    2  502    0 -0.32051609235E+02  0.18408006684E+02 -0.75767870845E+02  0.84302613385E+02  0.25500000000E-02 0.  1.
<mgrwt>
<rscale>  0 0.92530825E+02</rscale>
<asrwt>0</asrwt>
<pdfrwt beam="2">  1        1 0.61790934E-01 0.92530825E+02</pdfrwt>
<pdfrwt beam="1">  1       -1 0.81990097E-03 0.92530825E+02</pdfrwt>
<totfact> 0.12979446E+05</totfact>
</mgrwt>
</event>
<event>
 4    1  0.1893769E-002  0.7262876E+02  0.7818608E-02  0.1351375E+00
          1   -1    0    0    0  501  0.00000000000E+00  0.00000000000E+00  0.33520719314E+02  0.33520719693E+02  0.50400000000E-02 0. -1.
         -1   -1    0    0  501    0 -0.00000000000E+00 -0.00000000000E+00 -0.39340867277E+02  0.39340867599E+02  0.50400000000E-02 0. -1.
          2    1    1    2    0  502 -0.44875807060E+01 -0.25194825988E+02  0.22937157782E+02  0.34366129412E+02  0.25500000000E-02 0. -1.
         -2    1    1    2  502    0  0.44875807060E+01  0.25194825988E+02 -0.28757305745E+02  0.38495457880E+02  0.25500000000E-02 0. -1.
<mgrwt>
<rscale>  0 0.72628760E+02</rscale>
<asrwt>0</asrwt>
<pdfrwt beam="1">  1        1 0.51570338E-02 0.72628760E+02</pdfrwt>
<pdfrwt beam="2">  1       -1 0.60524412E-02 0.72628760E+02</pdfrwt>
<totfact> 0.16654399E+05</totfact>
</mgrwt>
</event>
<event>
 4    1  0.1893769E-002  0.4441370E+02  0.7818608E-02  0.1478035E+00
         -1   -1    0    0  501    0 -0.00000000000E+00  0.00000000000E+00  0.27112747806E+00  0.27117431840E+00  0.50400000000E-02 0. -1.
          1   -1    0    0    0  501  0.00000000000E+00 -0.00000000000E+00 -0.18187077818E+04  0.18187077818E+04  0.50400000000E-02 0. -1.
          2    1    1    2    0  502  0.13426515011E+02  0.17687055551E+02 -0.90092393767E+03  0.90119756142E+03  0.25500000000E-02 0.  1.
         -2    1    1    2  502    0 -0.13426515011E+02 -0.17687055551E+02 -0.91751271666E+03  0.91778139471E+03  0.25500000000E-02 0.  1.
<mgrwt>
<rscale>  0 0.44413703E+02</rscale>
<asrwt>0</asrwt>
<pdfrwt beam="2">  1        1 0.27979143E+00 0.44413703E+02</pdfrwt>
<pdfrwt beam="1">  1       -1 0.41716980E-04 0.44413703E+02</pdfrwt>
<totfact> 0.57411710E+05</totfact>
</mgrwt>
</event>
<event>
 4    1  0.1893769E-002  0.9572479E+02  0.7818608E-02  0.1289552E+00
         -1   -1    0    0  501    0 -0.00000000000E+00  0.00000000000E+00  0.17132570612E+02  0.17132571353E+02  0.50400000000E-02 0. -1.
          1   -1    0    0    0  501  0.00000000000E+00 -0.00000000000E+00 -0.13371074597E+03  0.13371074607E+03  0.50400000000E-02 0. -1.
          2    1    1    2    0  502 -0.12385475556E+02 -0.45320716744E+02 -0.72683457562E+02  0.86546244174E+02  0.25500000000E-02 0. -1.
         -2    1    1    2  502    0  0.12385475556E+02  0.45320716744E+02 -0.43894717799E+02  0.64297073247E+02  0.25500000000E-02 0. -1.
<mgrwt>
<rscale>  0 0.95724790E+02</rscale>
<asrwt>0</asrwt>
<pdfrwt beam="2">  1        1 0.20570883E-01 0.95724790E+02</pdfrwt>
<pdfrwt beam="1">  1       -1 0.26357802E-02 0.95724790E+02</pdfrwt>
<totfact> 0.96222761E+04</totfact>
</mgrwt>
</event>
<event>
 4    1  0.1893769E-002  0.5188315E+02  0.7818608E-02  0.1435441E+00
          1   -1    0    0    0  501  0.00000000000E+00  0.00000000000E+00  0.18287678760E+04  0.18287678760E+04  0.50400000000E-02 0.  1.
         -1   -1    0    0  501    0 -0.00000000000E+00 -0.00000000000E+00 -0.36797113552E+00  0.36800564965E+00  0.50400000000E-02 0.  1.
          2    1    1    2    0  502  0.21236965023E+02  0.11927572729E+02  0.59948261663E+03  0.59997723567E+03  0.25500000000E-02 0.  1.
         -2    1    1    2  502    0 -0.21236965023E+02 -0.11927572729E+02  0.12289172883E+04  0.12291586460E+04  0.25500000000E-02 0.  1.
<mgrwt>
<rscale>  0 0.51883152E+02</rscale>
<asrwt>0</asrwt>
<pdfrwt beam="1">  1        1 0.28134680E+00 0.51883152E+02</pdfrwt>
<pdfrwt beam="2">  1       -1 0.56614024E-04 0.51883152E+02</pdfrwt>
<totfact> 0.38690993E+05</totfact>
</mgrwt>
</event>
<event>
 4    1  0.1893769E-002  0.4636162E+02  0.7818608E-02  0.1466016E+00
         -1   -1    0    0  501    0 -0.00000000000E+00  0.00000000000E+00  0.72071076154E+00  0.72072838393E+00  0.50400000000E-02 0. -1.
          1   -1    0    0    0  501  0.00000000000E+00 -0.00000000000E+00 -0.74557431135E+03  0.74557431137E+03  0.50400000000E-02 0. -1.
          2    1    1    2    0  502  0.38492856152E+01 -0.22090477290E+02 -0.27781678764E+03  0.27872024269E+03  0.25500000000E-02 0. -1.
         -2    1    1    2  502    0 -0.38492856152E+01  0.22090477290E+02 -0.46703681295E+03  0.46757479706E+03  0.25500000000E-02 0. -1.
<mgrwt>
<rscale>  0 0.46361623E+02</rscale>
<asrwt>0</asrwt>
<pdfrwt beam="2">  1        1 0.11470312E+00 0.46361623E+02</pdfrwt>
<pdfrwt beam="1">  1       -1 0.11088053E-03 0.46361623E+02</pdfrwt>
<totfact> 0.79811038E+05</totfact>
</mgrwt>
</event>
<event>
 4    1  0.1893769E-002  0.4600700E+02  0.7818608E-02  0.1468151E+00
          1   -1    0    0    0  501  0.00000000000E+00  0.00000000000E+00  0.31694087261E+01  0.31694127334E+01  0.50400000000E-02 0.  1.
         -1   -1    0    0  501    0 -0.00000000000E+00 -0.00000000000E+00 -0.16695878017E+03  0.16695878024E+03  0.50400000000E-02 0.  1.
          2    1    1    2    0  502 -0.22856987797E+02 -0.96916787220E+00 -0.90784812961E+02  0.93622985684E+02  0.25500000000E-02 0.  1.
         -2    1    1    2  502    0  0.22856987797E+02  0.96916787220E+00 -0.73004558479E+02  0.76505207292E+02  0.25500000000E-02 0.  1.
<mgrwt>
<rscale>  0 0.46006998E+02</rscale>
<asrwt>0</asrwt>
<pdfrwt beam="1">  1        1 0.48760179E-03 0.46006998E+02</pdfrwt>
<pdfrwt beam="2">  1       -1 0.25685960E-01 0.46006998E+02</pdfrwt>
<totfact> 0.41243549E+05</totfact>
</mgrwt>
</event>
<event>
 4    1  0.1893769E-002  0.4631583E+02  0.7818608E-02  0.1466290E+00
          1   -1    0    0    0  501  0.00000000000E+00  0.00000000000E+00  0.24878280141E+01  0.24878331193E+01  0.50400000000E-02 0. -1.
         -1   -1    0    0  501    0 -0.00000000000E+00 -0.00000000000E+00 -0.21556493336E+03  0.21556493342E+03  0.50400000000E-02 0. -1.
          2    1    1    2    0  502 -0.20662560234E+02  0.83722349031E+01 -0.13603504426E+03  0.13784980589E+03  0.25500000000E-02 0. -1.
         -2    1    1    2  502    0  0.20662560234E+02 -0.83722349031E+01 -0.77042061090E+02  0.80202960644E+02  0.25500000000E-02 0. -1.
<mgrwt>
<rscale>  0 0.46315831E+02</rscale>
<asrwt>0</asrwt>
<pdfrwt beam="1">  1        1 0.38274334E-03 0.46315831E+02</pdfrwt>
<pdfrwt beam="2">  1       -1 0.33163822E-01 0.46315831E+02</pdfrwt>
<totfact> 0.37900474E+05</totfact>
</mgrwt>
</event>
<event>
 4    1  0.1893769E-002  0.4641832E+02  0.7818608E-02  0.1465677E+00
          1   -1    0    0    0  501  0.00000000000E+00  0.00000000000E+00  0.24564214124E+03  0.24564214129E+03  0.50400000000E-02 0.  1.
         -1   -1    0    0  501    0 -0.00000000000E+00 -0.00000000000E+00 -0.21928829750E+01  0.21928887668E+01  0.50400000000E-02 0.  1.
          2    1    1    2    0  502 -0.15725766670E+02  0.15358471875E+02  0.16149433601E+03  0.16298344384E+03  0.25500000000E-02 0. -1.
         -2    1    1    2  502    0  0.15725766670E+02 -0.15358471875E+02  0.81954922256E+02  0.84851586221E+02  0.25500000000E-02 0. -1.
<mgrwt>
<rscale>  0 0.46418324E+02</rscale>
<asrwt>0</asrwt>
<pdfrwt beam="1">  1        1 0.37791090E-01 0.46418324E+02</pdfrwt>
<pdfrwt beam="2">  1       -1 0.33736714E-03 0.46418324E+02</pdfrwt>
<totfact> 0.70096493E+05</totfact>
</mgrwt>
</event>
<event>
 4    1  0.1893769E-002  0.6685983E+02  0.7818608E-02  0.1371109E+00
         -1   -1    0    0  501    0 -0.00000000000E+00  0.00000000000E+00  0.20402316167E+03  0.20402316174E+03  0.50400000000E-02 0. -1.
          1   -1    0    0    0  501  0.00000000000E+00 -0.00000000000E+00 -0.54776076599E+01  0.54776099786E+01  0.50400000000E-02 0. -1.
          2    1    1    2    0  502 -0.21276866672E+02  0.25488715683E+02  0.11148086343E+03  0.11632008683E+03  0.25500000000E-02 0.  1.
         -2    1    1    2  502    0  0.21276866672E+02 -0.25488715683E+02  0.87064690582E+02  0.93180684882E+02  0.25500000000E-02 0.  1.
<mgrwt>
<rscale>  0 0.66859826E+02</rscale>
<asrwt>0</asrwt>
<pdfrwt beam="2">  1        1 0.84270900E-03 0.66859826E+02</pdfrwt>
<pdfrwt beam="1">  1       -1 0.31388181E-01 0.66859826E+02</pdfrwt>
<totfact> 0.15355921E+05</totfact>
</mgrwt>
</event>
<event>
 4    1  0.1893769E-002  0.5462542E+02  0.7818608E-02  0.1421879E+00
          1   -1    0    0    0  501  0.00000000000E+00  0.00000000000E+00  0.10043719772E+03  0.10043719784E+03  0.50400000000E-02 0.  1.
         -1   -1    0    0  501    0 -0.00000000000E+00 -0.00000000000E+00 -0.74273666529E+01  0.74273683629E+01  0.50400000000E-02 0.  1.
          2    1    1    2    0  502  0.14070317013E+01  0.20845535190E+02  0.81241879842E+02  0.83885392783E+02  0.25500000000E-02 0. -1.
         -2    1    1    2  502    0 -0.14070317013E+01 -0.20845535190E+02  0.11767951220E+02  0.23979173422E+02  0.25500000000E-02 0. -1.
<mgrwt>
<rscale>  0 0.54625415E+02</rscale>
<asrwt>0</asrwt>
<pdfrwt beam="1">  1        1 0.15451876E-01 0.54625415E+02</pdfrwt>
<pdfrwt beam="2">  1       -1 0.11426720E-02 0.54625415E+02</pdfrwt>
<totfact> 0.40357563E+05</totfact>
</mgrwt>
</event>
<event>
 4    1  0.1893769E-002  0.6160946E+02  0.7818608E-02  0.1391199E+00
         -1   -1    0    0  501    0 -0.00000000000E+00  0.00000000000E+00  0.13253646972E+02  0.13253647930E+02  0.50400000000E-02 0. -1.
          1   -1    0    0    0  501  0.00000000000E+00 -0.00000000000E+00 -0.71597756389E+02  0.71597756566E+02  0.50400000000E-02 0. -1.
          2    1    1    2    0  502 -0.13979584202E+02 -0.25320047474E+02 -0.43773324491E+02  0.52465584167E+02  0.25500000000E-02 0.  1.
         -2    1    1    2  502    0  0.13979584202E+02  0.25320047474E+02 -0.14570784926E+02  0.32385820329E+02  0.25500000000E-02 0.  1.
<mgrwt>
<rscale>  0 0.61609461E+02</rscale>
<asrwt>0</asrwt>
<pdfrwt beam="2">  1        1 0.11015039E-01 0.61609461E+02</pdfrwt>
<pdfrwt beam="1">  1       -1 0.20390227E-02 0.61609461E+02</pdfrwt>
<totfact> 0.28311142E+05</totfact>
</mgrwt>
</event>
<event>
 4    1  0.1893769E-002  0.5035760E+02  0.7818608E-02  0.1443422E+00
         -1   -1    0    0  501    0 -0.00000000000E+00  0.00000000000E+00  0.25400119838E+01  0.25400169841E+01  0.50400000000E-02 0. -1.
          1   -1    0    0    0  501  0.00000000000E+00 -0.00000000000E+00 -0.24959388285E+03  0.24959388290E+03  0.50400000000E-02 0. -1.
          2    1    1    2    0  502 -0.52277633369E+01  0.22526255411E+02 -0.73656316556E+02  0.77201131258E+02  0.25500000000E-02 0.  1.
         -2    1    1    2  502    0  0.52277633369E+01 -0.22526255411E+02 -0.17339755431E+03  0.17493276862E+03  0.25500000000E-02 0.  1.
<mgrwt>
<rscale>  0 0.50357605E+02</rscale>
<asrwt>0</asrwt>
<pdfrwt beam="2">  1        1 0.38399040E-01 0.50357605E+02</pdfrwt>
<pdfrwt beam="1">  1       -1 0.39077166E-03 0.50357605E+02</pdfrwt>
<totfact> 0.57398800E+05</totfact>
</mgrwt>
</event>
<event>
 4    1  0.1893769E-002  0.4845331E+02  0.7818608E-02  0.1453867E+00
         -1   -1    0    0  501    0 -0.00000000000E+00  0.00000000000E+00  0.81483054934E+00  0.81484613623E+00  0.50400000000E-02 0. -1.
          1   -1    0    0    0  501  0.00000000000E+00 -0.00000000000E+00 -0.72030334332E+03  0.72030334334E+03  0.50400000000E-02 0. -1.
          2    1    1    2    0  502 -0.52088724821E+01 -0.20066135528E+02 -0.17317575572E+03  0.17441222584E+03  0.25500000000E-02 0. -1.
         -2    1    1    2  502    0  0.52088724821E+01  0.20066135528E+02 -0.54631275705E+03  0.54670596364E+03  0.25500000000E-02 0. -1.
<mgrwt>
<rscale>  0 0.48453309E+02</rscale>
<asrwt>0</asrwt>
<pdfrwt beam="2">  1        1 0.11081539E+00 0.48453309E+02</pdfrwt>
<pdfrwt beam="1">  1       -1 0.12536032E-03 0.48453309E+02</pdfrwt>
<totfact> 0.71679124E+05</totfact>
</mgrwt>
</event>
<event>
 4    1  0.1893769E-002  0.5463280E+02  0.7818608E-02  0.1421843E+00
         -1   -1    0    0  501    0 -0.00000000000E+00  0.00000000000E+00  0.60320742809E+02  0.60320743019E+02  0.50400000000E-02 0.  1.
          1   -1    0    0    0  501  0.00000000000E+00 -0.00000000000E+00 -0.12370301564E+02  0.12370302591E+02  0.50400000000E-02 0.  1.
          2    1    1    2    0  502 -0.16030858784E+02  0.17966209374E+02  0.41139305884E+02  0.47667762772E+02  0.25500000000E-02 0. -1.
         -2    1    1    2  502    0  0.16030858784E+02 -0.17966209374E+02  0.68111353609E+01  0.25023282838E+02  0.25500000000E-02 0. -1.
<mgrwt>
<rscale>  0 0.54632804E+02</rscale>
<asrwt>0</asrwt>
<pdfrwt beam="2">  1        1 0.19031234E-02 0.54632804E+02</pdfrwt>
<pdfrwt beam="1">  1       -1 0.92801145E-02 0.54632804E+02</pdfrwt>
<totfact> 0.32122652E+05</totfact>
</mgrwt>
</event>
<event>
 4    1  0.1893769E-002  0.9665462E+02  0.7818608E-02  0.1287492E+00
          1   -1    0    0    0  501  0.00000000000E+00  0.00000000000E+00  0.30883032734E+03  0.30883032738E+03  0.50400000000E-02 0.  1.
         -1   -1    0    0  501    0 -0.00000000000E+00 -0.00000000000E+00 -0.75624981308E+01  0.75624998103E+01  0.50400000000E-02 0.  1.
          2    1    1    2    0  502  0.38399568255E+02  0.29327589475E+02  0.14753763016E+03  0.15524814545E+03  0.25500000000E-02 0. -1.
         -2    1    1    2  502    0 -0.38399568255E+02 -0.29327589475E+02  0.15373019905E+03  0.16114468174E+03  0.25500000000E-02 0. -1.
<mgrwt>
<rscale>  0 0.96654623E+02</rscale>
<asrwt>0</asrwt>
<pdfrwt beam="1">  1        1 0.47512357E-01 0.96654623E+02</pdfrwt>
<pdfrwt beam="2">  1       -1 0.11634614E-02 0.96654623E+02</pdfrwt>
<totfact> 0.11022725E+05</totfact>
</mgrwt>
</event>
<event>
 4    1  0.1893769E-002  0.4403110E+02  0.7818608E-02  0.1480482E+00
          1   -1    0    0    0  501  0.00000000000E+00  0.00000000000E+00  0.28059842927E+02  0.28059843380E+02  0.50400000000E-02 0. -1.
         -1   -1    0    0  501    0 -0.00000000000E+00 -0.00000000000E+00 -0.17273242848E+02  0.17273243584E+02  0.50400000000E-02 0. -1.
          2    1    1    2    0  502 -0.10528665212E+02 -0.19327349018E+02  0.59432197503E+01  0.22797391928E+02  0.25500000000E-02 0.  1.
         -2    1    1    2  502    0  0.10528665212E+02  0.19327349018E+02  0.48433803289E+01  0.22535695036E+02  0.25500000000E-02 0.  1.
<mgrwt>
<rscale>  0 0.44031103E+02</rscale>
<asrwt>0</asrwt>
<pdfrwt beam="1">  1        1 0.43168989E-02 0.44031103E+02</pdfrwt>
<pdfrwt beam="2">  1       -1 0.26574221E-02 0.44031103E+02</pdfrwt>
<totfact> 0.61242189E+05</totfact>
</mgrwt>
</event>
<event>
 4    1  0.1893769E-002  0.5361089E+02  0.7818608E-02  0.1426785E+00
         -1   -1    0    0  501    0 -0.00000000000E+00  0.00000000000E+00  0.61216939602E+00  0.61219014287E+00  0.50400000000E-02 0. -1.
          1   -1    0    0    0  501  0.00000000000E+00 -0.00000000000E+00 -0.11737270417E+04  0.11737270417E+04  0.50400000000E-02 0. -1.
          2    1    1    2    0  502 -0.95568711048E+01 -0.22814661512E+02 -0.81281397847E+03  0.81319026443E+03  0.25500000000E-02 0.  1.
         -2    1    1    2  502    0  0.95568711048E+01  0.22814661512E+02 -0.36030089381E+03  0.36114896740E+03  0.25500000000E-02 0.  1.
<mgrwt>
<rscale>  0 0.53610893E+02</rscale>
<asrwt>0</asrwt>
<pdfrwt beam="2">  1        1 0.18057159E+00 0.53610893E+02</pdfrwt>
<pdfrwt beam="1">  1       -1 0.94182443E-04 0.53610893E+02</pdfrwt>
<totfact> 0.50474675E+05</totfact>
</mgrwt>
</event>
<event>
 4    1  0.1893769E-002  0.6277613E+02  0.7818608E-02  0.1386538E+00
         -1   -1    0    0  501    0 -0.00000000000E+00  0.00000000000E+00  0.75678710563E+03  0.75678710565E+03  0.50400000000E-02 0. -1.
          1   -1    0    0    0  501  0.00000000000E+00 -0.00000000000E+00 -0.13018283797E+01  0.13018381358E+01  0.50400000000E-02 0. -1.
          2    1    1    2    0  502  0.10828739564E+02  0.26816388194E+02  0.23041935935E+03  0.23222717637E+03  0.25500000000E-02 0.  1.
         -2    1    1    2  502    0 -0.10828739564E+02 -0.26816388194E+02  0.52506591791E+03  0.52586176742E+03  0.25500000000E-02 0.  1.
<mgrwt>
<rscale>  0 0.62776130E+02</rscale>
<asrwt>0</asrwt>
<pdfrwt beam="2">  1        1 0.20028221E-03 0.62776130E+02</pdfrwt>
<pdfrwt beam="1">  1       -1 0.11642869E+00 0.62776130E+02</pdfrwt>
<totfact> 0.90252634E+04</totfact>
</mgrwt>
</event>
<event>
 4    1  0.1893769E-002  0.7789950E+02  0.7818608E-02  0.1335120E+00
         -1   -1    0    0  501    0 -0.00000000000E+00  0.00000000000E+00  0.77122061082E+00  0.77123707908E+00  0.50400000000E-02 0.  1.
          1   -1    0    0    0  501  0.00000000000E+00 -0.00000000000E+00 -0.19670984882E+04  0.19670984882E+04  0.50400000000E-02 0.  1.
          2    1    1    2    0  502  0.16343920418E+02 -0.24920132964E+02 -0.34963177506E+03  0.35089957951E+03  0.25500000000E-02 0.  1.
         -2    1    1    2  502    0 -0.16343920418E+02  0.24920132964E+02 -0.16166954925E+04  0.16169701458E+04  0.25500000000E-02 0.  1.
<mgrwt>
<rscale>  0 0.77899502E+02</rscale>
<asrwt>0</asrwt>
<pdfrwt beam="2">  1        1 0.30262652E+00 0.77899502E+02</pdfrwt>
<pdfrwt beam="1">  1       -1 0.11865217E-03 0.77899502E+02</pdfrwt>
<totfact> 0.12375443E+05</totfact>
</mgrwt>
</event>
<event>
 4    1  0.1893769E-002  0.4168452E+02  0.7818608E-02  0.1496169E+00
          1   -1    0    0    0  501  0.00000000000E+00  0.00000000000E+00  0.80771358293E+01  0.80771374017E+01  0.50400000000E-02 0. -1.
         -1   -1    0    0  501    0 -0.00000000000E+00 -0.00000000000E+00 -0.53781417203E+02  0.53781417439E+02  0.50400000000E-02 0. -1.
          2    1    1    2    0  502  0.10900333817E+02 -0.17624780785E+02 -0.19550621947E+02  0.28489945596E+02  0.25500000000E-02 0. -1.
         -2    1    1    2  502    0 -0.10900333817E+02  0.17624780785E+02 -0.26153659427E+02  0.33368609245E+02  0.25500000000E-02 0. -1.
<mgrwt>
<rscale>  0 0.41684523E+02</rscale>
<asrwt>0</asrwt>
<pdfrwt beam="1">  1        1 0.12426365E-02 0.41684523E+02</pdfrwt>
<pdfrwt beam="2">  1       -1 0.82740641E-02 0.41684523E+02</pdfrwt>
<totfact> 0.63188075E+05</totfact>
</mgrwt>
</event>
<event>
 4    1  0.1893769E-002  0.4831574E+02  0.7818608E-02  0.1454644E+00
         -1   -1    0    0  501    0 -0.00000000000E+00  0.00000000000E+00  0.46272031584E+00  0.46274776314E+00  0.50400000000E-02 0. -1.
          1   -1    0    0    0  501  0.00000000000E+00 -0.00000000000E+00 -0.12612054730E+04  0.12612054730E+04  0.50400000000E-02 0. -1.
          2    1    1    2    0  502  0.21011910524E+02 -0.10517830503E+02 -0.77687794429E+03  0.77723321177E+03  0.25500000000E-02 0.  1.
         -2    1    1    2  502    0 -0.21011910524E+02  0.10517830503E+02 -0.48386480840E+03  0.48443500901E+03  0.25500000000E-02 0.  1.
<mgrwt>
<rscale>  0 0.48315741E+02</rscale>
<asrwt>0</asrwt>
<pdfrwt beam="2">  1        1 0.19402886E+00 0.48315741E+02</pdfrwt>
<pdfrwt beam="1">  1       -1 0.71190863E-04 0.48315741E+02</pdfrwt>
<totfact> 0.63187042E+05</totfact>
</mgrwt>
</event>
<event>
 4    1  0.1893769E-002  0.4253406E+02  0.7818608E-02  0.1490351E+00
          1   -1    0    0    0  501  0.00000000000E+00  0.00000000000E+00  0.32884086781E+03  0.32884086785E+03  0.50400000000E-02 0. -1.
         -1   -1    0    0  501    0 -0.00000000000E+00 -0.00000000000E+00 -0.13753917981E+01  0.13754010323E+01  0.50400000000E-02 0. -1.
          2    1    1    2    0  502 -0.11308243902E+02 -0.17704577967E+02  0.18943250437E+03  0.19059381465E+03  0.25500000000E-02 0.  1.
         -2    1    1    2  502    0  0.11308243902E+02  0.17704577967E+02  0.13803297164E+03  0.13962245424E+03  0.25500000000E-02 0.  1.
<mgrwt>
<rscale>  0 0.42534060E+02</rscale>
<asrwt>0</asrwt>
<pdfrwt beam="1">  1        1 0.50590936E-01 0.42534060E+02</pdfrwt>
<pdfrwt beam="2">  1       -1 0.21159931E-03 0.42534060E+02</pdfrwt>
<totfact> 0.91383646E+05</totfact>
</mgrwt>
</event>
<event>
 4    1  0.1893769E-002  0.4325349E+02  0.7818608E-02  0.1485549E+00
          1   -1    0    0    0  501  0.00000000000E+00  0.00000000000E+00  0.21930946883E+03  0.21930946888E+03  0.50400000000E-02 0.  1.
         -1   -1    0    0  501    0 -0.00000000000E+00 -0.00000000000E+00 -0.21326728168E+01  0.21326787722E+01  0.50400000000E-02 0.  1.
          2    1    1    2    0  502 -0.65301715912E+00  0.20600439121E+02  0.14212552930E+03  0.14361222305E+03  0.25500000000E-02 0.  1.
         -2    1    1    2  502    0  0.65301715912E+00 -0.20600439121E+02  0.75051266709E+02  0.77829924608E+02  0.25500000000E-02 0.  1.
<mgrwt>
<rscale>  0 0.43253486E+02</rscale>
<asrwt>0</asrwt>
<pdfrwt beam="1">  1        1 0.33739922E-01 0.43253486E+02</pdfrwt>
<pdfrwt beam="2">  1       -1 0.32810394E-03 0.43253486E+02</pdfrwt>
<totfact> 0.81816764E+05</totfact>
</mgrwt>
</event>
<event>
 4    1  0.1893769E-002  0.5381608E+02  0.7818608E-02  0.1425782E+00
         -1   -1    0    0  501    0 -0.00000000000E+00  0.00000000000E+00  0.23764050003E+02  0.23764050537E+02  0.50400000000E-02 0. -1.
          1   -1    0    0    0  501  0.00000000000E+00 -0.00000000000E+00 -0.30467978214E+02  0.30467978630E+02  0.50400000000E-02 0. -1.
          2    1    1    2    0  502  0.23787752330E+02  0.25410525033E+01 -0.15764980841E+02  0.28650457870E+02  0.25500000000E-02 0.  1.
         -2    1    1    2  502    0 -0.23787752330E+02 -0.25410525033E+01  0.90610526300E+01  0.25581571297E+02  0.25500000000E-02 0.  1.
<mgrwt>
<rscale>  0 0.53816079E+02</rscale>
<asrwt>0</asrwt>
<pdfrwt beam="2">  1        1 0.46873814E-02 0.53816079E+02</pdfrwt>
<pdfrwt beam="1">  1       -1 0.36560077E-02 0.53816079E+02</pdfrwt>
<totfact> 0.36767966E+05</totfact>
</mgrwt>
</event>
<event>
 4    1  0.1893769E-002  0.8980032E+02  0.7818608E-02  0.1303336E+00
         -1   -1    0    0  501    0 -0.00000000000E+00  0.00000000000E+00  0.14606012517E+01  0.14606099473E+01  0.50400000000E-02 0. -1.
          1   -1    0    0    0  501  0.00000000000E+00 -0.00000000000E+00 -0.13802660132E+04  0.13802660132E+04  0.50400000000E-02 0. -1.
          2    1    1    2    0  502  0.65025468288E+01 -0.23423861898E+02 -0.12702492542E+04  0.12704818489E+04  0.25500000000E-02 0.  1.
         -2    1    1    2  502    0 -0.65025468288E+01  0.23423861898E+02 -0.10855615768E+03  0.11124477425E+03  0.25500000000E-02 0.  1.
<mgrwt>
<rscale>  0 0.89800318E+02</rscale>
<asrwt>0</asrwt>
<pdfrwt beam="2">  1        1 0.21234757E+00 0.89800318E+02</pdfrwt>
<pdfrwt beam="1">  1       -1 0.22470966E-03 0.89800318E+02</pdfrwt>
<totfact> 0.12239927E+05</totfact>
</mgrwt>
</event>
<event>
 4    1  0.1893769E-002  0.5033423E+02  0.7818608E-02  0.1443547E+00
          1   -1    0    0    0  501  0.00000000000E+00  0.00000000000E+00  0.52400797954E+01  0.52400822192E+01  0.50400000000E-02 0. -1.
         -1   -1    0    0  501    0 -0.00000000000E+00 -0.00000000000E+00 -0.12087289116E+03  0.12087289127E+03  0.50400000000E-02 0. -1.
          2    1    1    2    0  502  0.25054251579E+02  0.15832689953E+01 -0.62271345717E+02  0.67141215113E+02  0.25500000000E-02 0. -1.
         -2    1    1    2  502    0 -0.25054251579E+02 -0.15832689953E+01 -0.53361465650E+02  0.58971758374E+02  0.25500000000E-02 0. -1.
<mgrwt>
<rscale>  0 0.50334233E+02</rscale>
<asrwt>0</asrwt>
<pdfrwt beam="1">  1        1 0.80616641E-03 0.50334233E+02</pdfrwt>
<pdfrwt beam="2">  1       -1 0.18595827E-01 0.50334233E+02</pdfrwt>
<totfact> 0.35401944E+05</totfact>
</mgrwt>
</event>
<event>
 4    1  0.1893769E-002  0.5050612E+02  0.7818608E-02  0.1442631E+00
          1   -1    0    0    0  501  0.00000000000E+00  0.00000000000E+00  0.47221323369E+03  0.47221323372E+03  0.50400000000E-02 0.  1.
         -1   -1    0    0  501    0 -0.00000000000E+00 -0.00000000000E+00 -0.13504805202E+01  0.13504899249E+01  0.50400000000E-02 0.  1.
          2    1    1    2    0  502  0.13213094641E+02  0.19222532130E+02  0.14470548422E+03  0.14657342454E+03  0.25500000000E-02 0.  1.
         -2    1    1    2  502    0 -0.13213094641E+02 -0.19222532130E+02  0.32615726895E+03  0.32699029910E+03  0.25500000000E-02 0.  1.
<mgrwt>
<rscale>  0 0.50506119E+02</rscale>
<asrwt>0</asrwt>
<pdfrwt beam="1">  1        1 0.72648209E-01 0.50506119E+02</pdfrwt>
<pdfrwt beam="2">  1       -1 0.20776691E-03 0.50506119E+02</pdfrwt>
<totfact> 0.63134814E+05</totfact>
</mgrwt>
</event>
<event>
 4    1  0.1893769E-002  0.3291265E+03  0.7818608E-02  0.1071524E+00
          1   -1    0    0    0  501  0.00000000000E+00  0.00000000000E+00  0.57053918926E+02  0.57053919149E+02  0.50400000000E-02 0.  1.
         -1   -1    0    0  501    0 -0.00000000000E+00 -0.00000000000E+00 -0.47465745399E+03  0.47465745401E+03  0.50400000000E-02 0.  1.
          2    1    1    2    0  502 -0.13216852680E+03 -0.64124996073E+02 -0.88985589485E+02  0.17175264114E+03  0.25500000000E-02 0. -1.
         -2    1    1    2  502    0  0.13216852680E+03  0.64124996073E+02 -0.32861794558E+03  0.35995873202E+03  0.25500000000E-02 0. -1.
<mgrwt>
<rscale>  0 0.32912653E+03</rscale>
<asrwt>0</asrwt>
<pdfrwt beam="1">  1        1 0.87775263E-02 0.32912653E+03</pdfrwt>
<pdfrwt beam="2">  1       -1 0.73024221E-01 0.32912653E+03</pdfrwt>
<totfact> 0.15115766E+03</totfact>
</mgrwt>
</event>
<event>
 4    1  0.1893769E-002  0.5422567E+02  0.7818608E-02  0.1423797E+00
         -1   -1    0    0  501    0 -0.00000000000E+00  0.00000000000E+00  0.79539157837E+00  0.79540754619E+00  0.50400000000E-02 0. -1.
          1   -1    0    0    0  501  0.00000000000E+00 -0.00000000000E+00 -0.92419674870E+03  0.92419674872E+03  0.50400000000E-02 0. -1.
          2    1    1    2    0  502 -0.10169111257E+02  0.20441452925E+02 -0.71114839616E+03  0.71151479619E+03  0.25500000000E-02 0.  1.
         -2    1    1    2  502    0  0.10169111257E+02 -0.20441452925E+02 -0.21225296096E+03  0.21347736008E+03  0.25500000000E-02 0.  1.
<mgrwt>
<rscale>  0 0.54225666E+02</rscale>
<asrwt>0</asrwt>
<pdfrwt beam="2">  1        1 0.14218326E+00 0.54225666E+02</pdfrwt>
<pdfrwt beam="1">  1       -1 0.12236990E-03 0.54225666E+02</pdfrwt>
<totfact> 0.52782956E+05</totfact>
</mgrwt>
</event>
<event>
 4    1  0.1893769E-002  0.5119674E+02  0.7818608E-02  0.1438992E+00
          1   -1    0    0    0  501  0.00000000000E+00  0.00000000000E+00  0.68641318445E+03  0.68641318446E+03  0.50400000000E-02 0.  1.
         -1   -1    0    0  501    0 -0.00000000000E+00 -0.00000000000E+00 -0.95463201590E+00  0.95464532020E+00  0.50400000000E-02 0.  1.
          2    1    1    2    0  502  0.16277925293E+02  0.19417161849E+02  0.29380340886E+03  0.29489394719E+03  0.25500000000E-02 0.  1.
         -2    1    1    2  502    0 -0.16277925293E+02 -0.19417161849E+02  0.39165514357E+03  0.39247388259E+03  0.25500000000E-02 0.  1.
<mgrwt>
<rscale>  0 0.51196741E+02</rscale>
<asrwt>0</asrwt>
<pdfrwt beam="1">  1        1 0.10560249E+00 0.51196741E+02</pdfrwt>
<pdfrwt beam="2">  1       -1 0.14686685E-03 0.51196741E+02</pdfrwt>
<totfact> 0.62579961E+05</totfact>
</mgrwt>
</event>
<event>
 4    1  0.1893769E-002  0.5083741E+02  0.7818608E-02  0.1440876E+00
         -1   -1    0    0  501    0 -0.00000000000E+00  0.00000000000E+00  0.11406213458E+03  0.11406213469E+03  0.50400000000E-02 0. -1.
          1   -1    0    0    0  501  0.00000000000E+00 -0.00000000000E+00 -0.56645482166E+01  0.56645504588E+01  0.50400000000E-02 0. -1.
          2    1    1    2    0  502  0.25153175121E+02  0.47736489565E+00  0.62755422376E+02  0.67610303505E+02  0.25500000000E-02 0.  1.
         -2    1    1    2  502    0 -0.25153175121E+02 -0.47736489565E+00  0.45642163989E+02  0.52116381647E+02  0.25500000000E-02 0.  1.
<mgrwt>
<rscale>  0 0.50837411E+02</rscale>
<asrwt>0</asrwt>
<pdfrwt beam="2">  1        1 0.87146919E-03 0.50837411E+02</pdfrwt>
<pdfrwt beam="1">  1       -1 0.17548020E-01 0.50837411E+02</pdfrwt>
<totfact> 0.34914623E+05</totfact>
</mgrwt>
</event>
<event>
 4    1  0.1893769E-002  0.7649431E+02  0.7818608E-02  0.1339305E+00
         -1   -1    0    0  501    0 -0.00000000000E+00  0.00000000000E+00  0.39011293276E+01  0.39011325832E+01  0.50400000000E-02 0.  1.
          1   -1    0    0    0  501  0.00000000000E+00 -0.00000000000E+00 -0.37497971571E+03  0.37497971574E+03  0.50400000000E-02 0.  1.
          2    1    1    2    0  502  0.55345124892E+01  0.22463803024E+02 -0.34686994594E+02  0.41694614463E+02  0.25500000000E-02 0. -1.
         -2    1    1    2  502    0 -0.55345124892E+01 -0.22463803024E+02 -0.33639159179E+03  0.33718623386E+03  0.25500000000E-02 0. -1.
<mgrwt>
<rscale>  0 0.76494313E+02</rscale>
<asrwt>0</asrwt>
<pdfrwt beam="2">  1        1 0.57689159E-01 0.76494313E+02</pdfrwt>
<pdfrwt beam="1">  1       -1 0.60017429E-03 0.76494313E+02</pdfrwt>
<totfact> 0.21186245E+05</totfact>
</mgrwt>
</event>
<event>
 4    1  0.1893769E-002  0.6175037E+02  0.7818608E-02  0.1390630E+00
          1   -1    0    0    0  501  0.00000000000E+00  0.00000000000E+00  0.10724864214E+03  0.10724864225E+03  0.50400000000E-02 0.  1.
         -1   -1    0    0  501    0 -0.00000000000E+00 -0.00000000000E+00 -0.88884747745E+01  0.88884762034E+01  0.50400000000E-02 0.  1.
          2    1    1    2    0  502 -0.21748762618E+02  0.20297347379E+02  0.33638431802E+02  0.44905846910E+02  0.25500000000E-02 0. -1.
         -2    1    1    2  502    0  0.21748762618E+02 -0.20297347379E+02  0.64721735560E+02  0.71231271548E+02  0.25500000000E-02 0. -1.
<mgrwt>
<rscale>  0 0.61750366E+02</rscale>
<asrwt>0</asrwt>
<pdfrwt beam="1">  1        1 0.16499791E-01 0.61750366E+02</pdfrwt>
<pdfrwt beam="2">  1       -1 0.13674578E-02 0.61750366E+02</pdfrwt>
<totfact> 0.29724287E+05</totfact>
</mgrwt>
</event>
<event>
 4    1  0.1893769E-002  0.6914354E+02  0.7818608E-02  0.1363030E+00
         -1   -1    0    0  501    0 -0.00000000000E+00  0.00000000000E+00  0.74569634909E+00  0.74571338103E+00  0.50400000000E-02 0. -1.
          1   -1    0    0    0  501  0.00000000000E+00 -0.00000000000E+00 -0.16027886805E+04  0.16027886806E+04  0.50400000000E-02 0. -1.
          2    1    1    2    0  502 -0.19361498870E+02 -0.23301981396E+02 -0.11872519310E+04  0.11876384120E+04  0.25500000000E-02 0. -1.
         -2    1    1    2  502    0  0.19361498870E+02  0.23301981396E+02 -0.41479105324E+03  0.41589598198E+03  0.25500000000E-02 0. -1.
<mgrwt>
<rscale>  0 0.69143541E+02</rscale>
<asrwt>0</asrwt>
<pdfrwt beam="2">  1        1 0.24658012E+00 0.69143541E+02</pdfrwt>
<pdfrwt beam="1">  1       -1 0.11472511E-03 0.69143541E+02</pdfrwt>
<totfact> 0.21484804E+05</totfact>
</mgrwt>
</event>
<event>
 4    1  0.1893769E-002  0.5155126E+02  0.7818608E-02  0.1437150E+00
         -1   -1    0    0  501    0 -0.00000000000E+00  0.00000000000E+00  0.34413528540E+03  0.34413528544E+03  0.50400000000E-02 0.  1.
          1   -1    0    0    0  501  0.00000000000E+00 -0.00000000000E+00 -0.19305837686E+01  0.19305903474E+01  0.50400000000E-02 0.  1.
          2    1    1    2    0  502 -0.18663304222E+02  0.15561793835E+02  0.11339563379E+03  0.11597007424E+03  0.25500000000E-02 0.  1.
         -2    1    1    2  502    0  0.18663304222E+02 -0.15561793835E+02  0.22880906785E+03  0.23009580154E+03  0.25500000000E-02 0.  1.
<mgrwt>
<rscale>  0 0.51551262E+02</rscale>
<asrwt>0</asrwt>
<pdfrwt beam="2">  1        1 0.29701325E-03 0.51551262E+02</pdfrwt>
<pdfrwt beam="1">  1       -1 0.52943917E-01 0.51551262E+02</pdfrwt>
<totfact> 0.24569578E+05</totfact>
</mgrwt>
</event>
<event>
 4    1  0.1893769E-002  0.6397634E+02  0.7818608E-02  0.1381864E+00
          1   -1    0    0    0  501  0.00000000000E+00  0.00000000000E+00  0.13835094110E+02  0.13835095028E+02  0.50400000000E-02 0.  1.
         -1   -1    0    0  501    0 -0.00000000000E+00 -0.00000000000E+00 -0.73959956164E+02  0.73959956336E+02  0.50400000000E-02 0.  1.
          2    1    1    2    0  502 -0.19402208428E+02 -0.98362227706E+01  0.21223208462E+01  0.21856377160E+02  0.25500000000E-02 0. -1.
         -2    1    1    2  502    0  0.19402208428E+02  0.98362227706E+01 -0.62247182900E+02  0.65938674204E+02  0.25500000000E-02 0. -1.
<mgrwt>
<rscale>  0 0.63976339E+02</rscale>
<asrwt>0</asrwt>
<pdfrwt beam="1">  1        1 0.21284761E-02 0.63976339E+02</pdfrwt>
<pdfrwt beam="2">  1       -1 0.11378455E-01 0.63976339E+02</pdfrwt>
<totfact> 0.21072771E+05</totfact>
</mgrwt>
</event>
<event>
 4    1  0.1893769E-002  0.5295575E+02  0.7818608E-02  0.1430021E+00
         -1   -1    0    0  501    0 -0.00000000000E+00  0.00000000000E+00  0.12292415231E+02  0.12292416264E+02  0.50400000000E-02 0.  1.
          1   -1    0    0    0  501  0.00000000000E+00 -0.00000000000E+00 -0.57033360672E+02  0.57033360895E+02  0.50400000000E-02 0.  1.
          2    1    1    2    0  502 -0.90930304467E+01  0.21131223545E+02 -0.52081287864E+01  0.23586784927E+02  0.25500000000E-02 0. -1.
         -2    1    1    2  502    0  0.90930304467E+01 -0.21131223545E+02 -0.39532816655E+02  0.45738992232E+02  0.25500000000E-02 0. -1.
<mgrwt>
<rscale>  0 0.52955747E+02</rscale>
<asrwt>0</asrwt>
<pdfrwt beam="2">  1        1 0.87743632E-02 0.52955747E+02</pdfrwt>
<pdfrwt beam="1">  1       -1 0.18911409E-02 0.52955747E+02</pdfrwt>
<totfact> 0.40798697E+05</totfact>
</mgrwt>
</event>
<event>
 4    1  0.1893769E-002  0.4796964E+02  0.7818608E-02  0.1456611E+00
          1   -1    0    0    0  501  0.00000000000E+00  0.00000000000E+00  0.23087618873E+03  0.23087618878E+03  0.50400000000E-02 0. -1.
         -1   -1    0    0  501    0 -0.00000000000E+00 -0.00000000000E+00 -0.24916862281E+01  0.24916913253E+01  0.50400000000E-02 0. -1.
          2    1    1    2    0  502  0.69117911840E+01 -0.22401799385E+02  0.89549612638E+02  0.92567524560E+02  0.25500000000E-02 0. -1.
         -2    1    1    2  502    0 -0.69117911840E+01  0.22401799385E+02  0.13883488986E+03  0.14080035555E+03  0.25500000000E-02 0. -1.
<mgrwt>
<rscale>  0 0.47969641E+02</rscale>
<asrwt>0</asrwt>
<pdfrwt beam="1">  1        1 0.35519416E-01 0.47969641E+02</pdfrwt>
<pdfrwt beam="2">  1       -1 0.38333671E-03 0.47969641E+02</pdfrwt>
<totfact> 0.63908562E+05</totfact>
</mgrwt>
</event>
<event>
 4    1  0.1893769E-002  0.1447251E+03  0.7818608E-02  0.1207109E+00
         -1   -1    0    0  501    0 -0.00000000000E+00  0.00000000000E+00  0.10598466996E+02  0.10598468194E+02  0.50400000000E-02 0. -1.
          1   -1    0    0    0  501  0.00000000000E+00 -0.00000000000E+00 -0.49406583094E+03  0.49406583096E+03  0.50400000000E-02 0. -1.
          2    1    1    2    0  502  0.52617294131E+02  0.46670208824E+02 -0.18238686805E+03  0.19547802351E+03  0.25500000000E-02 0. -1.
         -2    1    1    2  502    0 -0.52617294131E+02 -0.46670208824E+02 -0.30108049589E+03  0.30918627564E+03  0.25500000000E-02 0. -1.
<mgrwt>
<rscale>  0 0.14472513E+03</rscale>
<asrwt>0</asrwt>
<pdfrwt beam="2">  1        1 0.76010110E-01 0.14472513E+03</pdfrwt>
<pdfrwt beam="1">  1       -1 0.16305339E-02 0.14472513E+03</pdfrwt>
<totfact> 0.39725431E+04</totfact>
</mgrwt>
</event>
<event>
 4    1  0.1893769E-002  0.5902005E+02  0.7818608E-02  0.1401991E+00
         -1   -1    0    0  501    0 -0.00000000000E+00  0.00000000000E+00  0.57170306024E+03  0.57170306026E+03  0.50400000000E-02 0. -1.
          1   -1    0    0    0  501  0.00000000000E+00 -0.00000000000E+00 -0.15232369134E+01  0.15232452515E+01  0.50400000000E-02 0. -1.
          2    1    1    2    0  502  0.12922962936E+02  0.19140273498E+02  0.46351505597E+03  0.46409003454E+03  0.25500000000E-02 0.  1.
         -2    1    1    2  502    0 -0.12922962936E+02 -0.19140273498E+02  0.10666476736E+03  0.10913627098E+03  0.25500000000E-02 0.  1.
<mgrwt>
<rscale>  0 0.59020051E+02</rscale>
<asrwt>0</asrwt>
<pdfrwt beam="2">  1        1 0.23434441E-03 0.59020051E+02</pdfrwt>
<pdfrwt beam="1">  1       -1 0.87954457E-01 0.59020051E+02</pdfrwt>
<totfact> 0.13201953E+05</totfact>
</mgrwt>
</event>
<event>
 4    1  0.1893769E-002  0.4946426E+02  0.7818608E-02  0.1448253E+00
          1   -1    0    0    0  501  0.00000000000E+00  0.00000000000E+00  0.11486916874E+01  0.11487027441E+01  0.50400000000E-02 0.  1.
         -1   -1    0    0  501    0 -0.00000000000E+00 -0.00000000000E+00 -0.53249735878E+03  0.53249735880E+03  0.50400000000E-02 0.  1.
          2    1    1    2    0  502 -0.72762985977E+01 -0.18969502931E+02 -0.11352498405E+03  0.11532869796E+03  0.25500000000E-02 0. -1.
         -2    1    1    2  502    0  0.72762985977E+01  0.18969502931E+02 -0.41782368304E+03  0.41831736358E+03  0.25500000000E-02 0. -1.
<mgrwt>
<rscale>  0 0.49464260E+02</rscale>
<asrwt>0</asrwt>
<pdfrwt beam="1">  1        1 0.17672308E-03 0.49464260E+02</pdfrwt>
<pdfrwt beam="2">  1       -1 0.81922474E-01 0.49464260E+02</pdfrwt>
<totfact> 0.21529484E+05</totfact>
</mgrwt>
</event>
<event>
 4    1  0.1893769E-002  0.4890575E+02  0.7818608E-02  0.1451335E+00
         -1   -1    0    0  501    0 -0.00000000000E+00  0.00000000000E+00  0.46126106359E+01  0.46126133894E+01  0.50400000000E-02 0. -1.
          1   -1    0    0    0  501  0.00000000000E+00 -0.00000000000E+00 -0.12963221050E+03  0.12963221060E+03  0.50400000000E-02 0. -1.
          2    1    1    2    0  502  0.23525767743E+02  0.54640288261E+01 -0.73007557318E+02  0.76898769762E+02  0.25500000000E-02 0. -1.
         -2    1    1    2  502    0 -0.23525767743E+02 -0.54640288261E+01 -0.52012042550E+02  0.57346054229E+02  0.25500000000E-02 0. -1.
<mgrwt>
<rscale>  0 0.48905750E+02</rscale>
<asrwt>0</asrwt>
<pdfrwt beam="2">  1        1 0.19943414E-01 0.48905750E+02</pdfrwt>
<pdfrwt beam="1">  1       -1 0.70963272E-03 0.48905750E+02</pdfrwt>
<totfact> 0.55380543E+05</totfact>
</mgrwt>
</event>
<event>
 4    1  0.1893769E-002  0.7573198E+02  0.7818608E-02  0.1341619E+00
          1   -1    0    0    0  501  0.00000000000E+00  0.00000000000E+00  0.27033282281E+03  0.27033282286E+03  0.50400000000E-02 0.  1.
         -1   -1    0    0  501    0 -0.00000000000E+00 -0.00000000000E+00 -0.53039543312E+01  0.53039567257E+01  0.50400000000E-02 0.  1.
          2    1    1    2    0  502 -0.29634311200E+02  0.22791868080E+02  0.11062463110E+03  0.11677101808E+03  0.25500000000E-02 0. -1.
         -2    1    1    2  502    0  0.29634311200E+02 -0.22791868080E+02  0.15440423738E+03  0.15886576150E+03  0.25500000000E-02 0. -1.
<mgrwt>
<rscale>  0 0.75731982E+02</rscale>
<asrwt>0</asrwt>
<pdfrwt beam="1">  1        1 0.41589671E-01 0.75731982E+02</pdfrwt>
<pdfrwt beam="2">  1       -1 0.81599306E-03 0.75731982E+02</pdfrwt>
<totfact> 0.20504412E+05</totfact>
</mgrwt>
</event>
<event>
 4    1  0.1893769E-002  0.4632674E+02  0.7818608E-02  0.1466225E+00
         -1   -1    0    0  501    0 -0.00000000000E+00  0.00000000000E+00  0.34863865252E+03  0.34863865255E+03  0.50400000000E-02 0. -1.
          1   -1    0    0    0  501  0.00000000000E+00 -0.00000000000E+00 -0.15389577912E+01  0.15389660441E+01  0.50400000000E-02 0. -1.
          2    1    1    2    0  502 -0.15813929417E+02 -0.13290093108E+02  0.94331383069E+02  0.96566644224E+02  0.25500000000E-02 0.  1.
         -2    1    1    2  502    0  0.15813929417E+02  0.13290093108E+02  0.25276831166E+03  0.25361097437E+03  0.25500000000E-02 0.  1.
<mgrwt>
<rscale>  0 0.46326736E+02</rscale>
<asrwt>0</asrwt>
<pdfrwt beam="2">  1        1 0.23676317E-03 0.46326736E+02</pdfrwt>
<pdfrwt beam="1">  1       -1 0.53636762E-01 0.46326736E+02</pdfrwt>
<totfact> 0.31812199E+05</totfact>
</mgrwt>
</event>
<event>
 4    1  0.1893769E-002  0.5318503E+02  0.7818608E-02  0.1428882E+00
          1   -1    0    0    0  501  0.00000000000E+00  0.00000000000E+00  0.20995758564E+03  0.20995758570E+03  0.50400000000E-02 0.  1.
         -1   -1    0    0  501    0 -0.00000000000E+00 -0.00000000000E+00 -0.33681153512E+01  0.33681191221E+01  0.50400000000E-02 0.  1.
          2    1    1    2    0  502 -0.16106869061E+02  0.17456083500E+02  0.15126207602E+03  0.15311551760E+03  0.25500000000E-02 0. -1.
         -2    1    1    2  502    0  0.16106869061E+02 -0.17456083500E+02  0.55327394272E+02  0.60210187223E+02  0.25500000000E-02 0. -1.
<mgrwt>
<rscale>  0 0.53185027E+02</rscale>
<asrwt>0</asrwt>
<pdfrwt beam="1">  1        1 0.32301164E-01 0.53185027E+02</pdfrwt>
<pdfrwt beam="2">  1       -1 0.51817195E-03 0.53185027E+02</pdfrwt>
<totfact> 0.48538825E+05</totfact>
</mgrwt>
</event>
<event>
 4    1  0.1893769E-002  0.4488519E+02  0.7818608E-02  0.1475060E+00
          1   -1    0    0    0  501  0.00000000000E+00  0.00000000000E+00  0.13716013658E+01  0.13716106256E+01  0.50400000000E-02 0.  1.
         -1   -1    0    0  501    0 -0.00000000000E+00 -0.00000000000E+00 -0.36721184759E+03  0.36721184762E+03  0.50400000000E-02 0.  1.
          2    1    1    2    0  502  0.17191345901E+02 -0.11675421964E+02 -0.25250769807E+03  0.25336139296E+03  0.25500000000E-02 0. -1.
         -2    1    1    2  502    0 -0.17191345901E+02  0.11675421964E+02 -0.11333254815E+03  0.11522206529E+03  0.25500000000E-02 0. -1.
<mgrwt>
<rscale>  0 0.44885186E+02</rscale>
<asrwt>0</asrwt>
<pdfrwt beam="1">  1        1 0.21101660E-03 0.44885186E+02</pdfrwt>
<pdfrwt beam="2">  1       -1 0.56494052E-01 0.44885186E+02</pdfrwt>
<totfact> 0.33576847E+05</totfact>
</mgrwt>
</event>
<event>
 4    1  0.1893769E-002  0.6527691E+02  0.7818608E-02  0.1376933E+00
          1   -1    0    0    0  501  0.00000000000E+00  0.00000000000E+00  0.86297151674E+03  0.86297151675E+03  0.50400000000E-02 0. -1.
         -1   -1    0    0  501    0 -0.00000000000E+00 -0.00000000000E+00 -0.12344140248E+01  0.12344243137E+01  0.50400000000E-02 0. -1.
          2    1    1    2    0  502  0.24438126631E+02 -0.19560757048E+02  0.30850672161E+03  0.31009070050E+03  0.25500000000E-02 0. -1.
         -2    1    1    2  502    0 -0.24438126631E+02  0.19560757048E+02  0.55323038110E+03  0.55411524057E+03  0.25500000000E-02 0. -1.
<mgrwt>
<rscale>  0 0.65276905E+02</rscale>
<asrwt>0</asrwt>
<pdfrwt beam="1">  1        1 0.13276473E+00 0.65276905E+02</pdfrwt>
<pdfrwt beam="2">  1       -1 0.18991081E-03 0.65276905E+02</pdfrwt>
<totfact> 0.33398124E+05</totfact>
</mgrwt>
</event>
<event>
 4    1  0.1893769E-002  0.5424917E+02  0.7818608E-02  0.1423683E+00
         -1   -1    0    0  501    0 -0.00000000000E+00  0.00000000000E+00  0.77742470886E+00  0.77744104570E+00  0.50400000000E-02 0.  1.
          1   -1    0    0    0  501  0.00000000000E+00 -0.00000000000E+00 -0.94637508567E+03  0.94637508568E+03  0.50400000000E-02 0.  1.
          2    1    1    2    0  502  0.16407172648E+02 -0.19582041795E+02 -0.31364944843E+03  0.31468814433E+03  0.25500000000E-02 0. -1.
         -2    1    1    2  502    0 -0.16407172648E+02  0.19582041795E+02 -0.63194821253E+03  0.63246438240E+03  0.25500000000E-02 0. -1.
<mgrwt>
<rscale>  0 0.54249170E+02</rscale>
<asrwt>0</asrwt>
<pdfrwt beam="2">  1        1 0.14559525E+00 0.54249170E+02</pdfrwt>
<pdfrwt beam="1">  1       -1 0.11960582E-03 0.54249170E+02</pdfrwt>
<totfact> 0.52471671E+05</totfact>
</mgrwt>
</event>
<event>
 4    1  0.1893769E-002  0.4463506E+02  0.7818608E-02  0.1476633E+00
          1   -1    0    0    0  501  0.00000000000E+00  0.00000000000E+00  0.12077800189E+02  0.12077801241E+02  0.50400000000E-02 0. -1.
         -1   -1    0    0  501    0 -0.00000000000E+00 -0.00000000000E+00 -0.41238637894E+02  0.41238638202E+02  0.50400000000E-02 0. -1.
          2    1    1    2    0  502  0.13296844029E+02  0.15872946917E+02 -0.46355193610E+01  0.21218966780E+02  0.25500000000E-02 0.  1.
         -2    1    1    2  502    0 -0.13296844029E+02 -0.15872946917E+02 -0.24525318343E+02  0.32097472662E+02  0.25500000000E-02 0.  1.
<mgrwt>
<rscale>  0 0.44635056E+02</rscale>
<asrwt>0</asrwt>
<pdfrwt beam="1">  1        1 0.18581232E-02 0.44635056E+02</pdfrwt>
<pdfrwt beam="2">  1       -1 0.63444059E-02 0.44635056E+02</pdfrwt>
<totfact> 0.55020479E+05</totfact>
</mgrwt>
</event>
<event>
 4    1  0.1893769E-002  0.5066254E+02  0.7818608E-02  0.1441800E+00
         -1   -1    0    0  501    0 -0.00000000000E+00  0.00000000000E+00  0.10206064154E+03  0.10206064166E+03  0.50400000000E-02 0. -1.
          1   -1    0    0    0  501  0.00000000000E+00 -0.00000000000E+00 -0.62871741302E+01  0.62871761503E+01  0.50400000000E-02 0. -1.
          2    1    1    2    0  502  0.20929571147E+02 -0.28055704010E+01  0.77808665679E+02  0.80623238802E+02  0.25500000000E-02 0.  1.
         -2    1    1    2  502    0 -0.20929571147E+02  0.28055704010E+01  0.17964801729E+02  0.27724579011E+02  0.25500000000E-02 0.  1.
<mgrwt>
<rscale>  0 0.50662536E+02</rscale>
<asrwt>0</asrwt>
<pdfrwt beam="2">  1        1 0.96725781E-03 0.50662536E+02</pdfrwt>
<pdfrwt beam="1">  1       -1 0.15701636E-01 0.50662536E+02</pdfrwt>
<totfact> 0.35905917E+05</totfact>
</mgrwt>
</event>
<event>
 4    1  0.1893769E-002  0.6411485E+02  0.7818608E-02  0.1381332E+00
         -1   -1    0    0  501    0 -0.00000000000E+00  0.00000000000E+00  0.10614420348E+04  0.10614420349E+04  0.50400000000E-02 0.  1.
          1   -1    0    0    0  501  0.00000000000E+00 -0.00000000000E+00 -0.96818437461E+00  0.96819749268E+00  0.50400000000E-02 0.  1.
          2    1    1    2    0  502 -0.28277776000E+02 -0.15038582473E+02  0.50747455143E+03  0.50848422978E+03  0.25500000000E-02 0. -1.
         -2    1    1    2  502    0  0.28277776000E+02  0.15038582473E+02  0.55299929904E+03  0.55392600257E+03  0.25500000000E-02 0. -1.
<mgrwt>
<rscale>  0 0.64114852E+02</rscale>
<asrwt>0</asrwt>
<pdfrwt beam="2">  1        1 0.14895324E-03 0.64114852E+02</pdfrwt>
<pdfrwt beam="1">  1       -1 0.16329791E+00 0.64114852E+02</pdfrwt>
<totfact> 0.59246947E+04</totfact>
</mgrwt>
</event>
<event>
 4    1  0.1893769E-002  0.1117951E+03  0.7818608E-02  0.1257281E+00
          1   -1    0    0    0  501  0.00000000000E+00  0.00000000000E+00  0.35222879948E+02  0.35222880309E+02  0.50400000000E-02 0.  1.
         -1   -1    0    0  501    0 -0.00000000000E+00 -0.00000000000E+00 -0.88707607973E+02  0.88707608116E+02  0.50400000000E-02 0.  1.
          2    1    1    2    0  502 -0.36317238531E+02  0.42232579859E+02 -0.31942495840E+02  0.64209467083E+02  0.25500000000E-02 0.  1.
         -2    1    1    2  502    0  0.36317238531E+02 -0.42232579859E+02 -0.21542232185E+02  0.59721021342E+02  0.25500000000E-02 0.  1.
<mgrwt>
<rscale>  0 0.11179512E+03</rscale>
<asrwt>0</asrwt>
<pdfrwt beam="1">  1        1 0.54189047E-02 0.11179512E+03</pdfrwt>
<pdfrwt beam="2">  1       -1 0.13647324E-01 0.11179512E+03</pdfrwt>
<totfact> 0.49211633E+04</totfact>
</mgrwt>
</event>
<event>
 4    1  0.1893769E-002  0.5721188E+02  0.7818608E-02  0.1409919E+00
          1   -1    0    0    0  501  0.00000000000E+00  0.00000000000E+00  0.62643707806E+03  0.62643707808E+03  0.50400000000E-02 0. -1.
         -1   -1    0    0  501    0 -0.00000000000E+00 -0.00000000000E+00 -0.13062710605E+01  0.13062807834E+01  0.50400000000E-02 0. -1.
          2    1    1    2    0  502  0.21762853320E+02  0.18564821601E+02  0.31082042726E+03  0.31213396546E+03  0.25500000000E-02 0. -1.
         -2    1    1    2  502    0 -0.21762853320E+02 -0.18564821601E+02  0.31431037974E+03  0.31560939340E+03  0.25500000000E-02 0. -1.
<mgrwt>
<rscale>  0 0.57211876E+02</rscale>
<asrwt>0</asrwt>
<pdfrwt beam="1">  1        1 0.96375089E-01 0.57211876E+02</pdfrwt>
<pdfrwt beam="2">  1       -1 0.20096521E-03 0.57211876E+02</pdfrwt>
<totfact> 0.47314953E+05</totfact>
</mgrwt>
</event>
<event>
 4    1  0.1893769E-002  0.7571716E+02  0.7818608E-02  0.1341665E+00
          1   -1    0    0    0  501  0.00000000000E+00  0.00000000000E+00  0.11421940672E+03  0.11421940683E+03  0.50400000000E-02 0. -1.
         -1   -1    0    0  501    0 -0.00000000000E+00 -0.00000000000E+00 -0.12548409190E+02  0.12548410202E+02  0.50400000000E-02 0. -1.
          2    1    1    2    0  502  0.42417441499E+00  0.30342914583E+02  0.12937255437E+02  0.32988558230E+02  0.25500000000E-02 0.  1.
         -2    1    1    2  502    0 -0.42417441499E+00 -0.30342914583E+02  0.88733742089E+02  0.93779258799E+02  0.25500000000E-02 0.  1.
<mgrwt>
<rscale>  0 0.75717156E+02</rscale>
<asrwt>0</asrwt>
<pdfrwt beam="1">  1        1 0.17572216E-01 0.75717156E+02</pdfrwt>
<pdfrwt beam="2">  1       -1 0.19305246E-02 0.75717156E+02</pdfrwt>
<totfact> 0.17588271E+05</totfact>
</mgrwt>
</event>
<event>
 4    1  0.1893769E-002  0.6280358E+02  0.7818608E-02  0.1386429E+00
         -1   -1    0    0  501    0 -0.00000000000E+00  0.00000000000E+00  0.56628122836E+03  0.56628122838E+03  0.50400000000E-02 0.  1.
          1   -1    0    0    0  501  0.00000000000E+00 -0.00000000000E+00 -0.17413086784E+01  0.17413159722E+01  0.50400000000E-02 0.  1.
          2    1    1    2    0  502 -0.13428844813E+02 -0.21989387728E+02  0.44461820216E+03  0.44536413500E+03  0.25500000000E-02 0. -1.
         -2    1    1    2  502    0  0.13428844813E+02  0.21989387728E+02  0.11992171752E+03  0.12265840936E+03  0.25500000000E-02 0. -1.
<mgrwt>
<rscale>  0 0.62803583E+02</rscale>
<asrwt>0</asrwt>
<pdfrwt beam="2">  1        1 0.26789386E-03 0.62803583E+02</pdfrwt>
<pdfrwt beam="1">  1       -1 0.87120302E-01 0.62803583E+02</pdfrwt>
<totfact> 0.11356637E+05</totfact>
</mgrwt>
</event>
<event>
 4    1  0.1893769E-002  0.1729153E+03  0.7818608E-02  0.1174841E+00
         -1   -1    0    0  501    0 -0.00000000000E+00  0.00000000000E+00  0.61090106080E+03  0.61090106082E+03  0.50400000000E-02 0. -1.
          1   -1    0    0    0  501  0.00000000000E+00 -0.00000000000E+00 -0.12235907270E+02  0.12235908308E+02  0.50400000000E-02 0. -1.
          2    1    1    2    0  502  0.62672951480E+02  0.30079409507E+02  0.48457382736E+03  0.48953494655E+03  0.25500000000E-02 0.  1.
         -2    1    1    2  502    0 -0.62672951480E+02 -0.30079409507E+02  0.11409132617E+03  0.13360202258E+03  0.25500000000E-02 0.  1.
<mgrwt>
<rscale>  0 0.17291534E+03</rscale>
<asrwt>0</asrwt>
<pdfrwt beam="2">  1        1 0.18824476E-02 0.17291534E+03</pdfrwt>
<pdfrwt beam="1">  1       -1 0.93984769E-01 0.17291534E+03</pdfrwt>
<totfact> 0.73697850E+03</totfact>
</mgrwt>
</event>
<event>
 4    1  0.1893769E-002  0.4092932E+02  0.7818608E-02  0.1501482E+00
         -1   -1    0    0  501    0 -0.00000000000E+00  0.00000000000E+00  0.71207517570E+03  0.71207517572E+03  0.50400000000E-02 0.  1.
          1   -1    0    0    0  501  0.00000000000E+00 -0.00000000000E+00 -0.58813244184E+00  0.58815403658E+00  0.50400000000E-02 0.  1.
          2    1    1    2    0  502  0.15858748876E+02  0.12846858136E+02  0.32956441896E+03  0.33019577212E+03  0.25500000000E-02 0.  1.
         -2    1    1    2  502    0 -0.15858748876E+02 -0.12846858136E+02  0.38192262430E+03  0.38246755763E+03  0.25500000000E-02 0.  1.
<mgrwt>
<rscale>  0 0.40929315E+02</rscale>
<asrwt>0</asrwt>
<pdfrwt beam="2">  1        1 0.90483740E-04 0.40929315E+02</pdfrwt>
<pdfrwt beam="1">  1       -1 0.10954983E+00 0.40929315E+02</pdfrwt>
<totfact> 0.27504306E+05</totfact>
</mgrwt>
</event>
<event>
 4    1  0.1893769E-002  0.6444089E+02  0.7818608E-02  0.1380087E+00
          1   -1    0    0    0  501  0.00000000000E+00  0.00000000000E+00  0.20795645936E+03  0.20795645942E+03  0.50400000000E-02 0. -1.
         -1   -1    0    0  501    0 -0.00000000000E+00 -0.00000000000E+00 -0.49921838867E+01  0.49921864309E+01  0.50400000000E-02 0. -1.
          2    1    1    2    0  502  0.11983358996E+02  0.23596378059E+02  0.16221476591E+03  0.16435942394E+03  0.25500000000E-02 0. -1.
         -2    1    1    2  502    0 -0.11983358996E+02 -0.23596378059E+02  0.40749509561E+02  0.48589221915E+02  0.25500000000E-02 0. -1.
<mgrwt>
<rscale>  0 0.64440893E+02</rscale>
<asrwt>0</asrwt>
<pdfrwt beam="1">  1        1 0.31993306E-01 0.64440893E+02</pdfrwt>
<pdfrwt beam="2">  1       -1 0.76802838E-03 0.64440893E+02</pdfrwt>
<totfact> 0.29703244E+05</totfact>
</mgrwt>
</event>
<event>
 4    1  0.1893769E-002  0.5072767E+02  0.7818608E-02  0.1441456E+00
         -1   -1    0    0  501    0 -0.00000000000E+00  0.00000000000E+00  0.91173730020E+03  0.91173730021E+03  0.50400000000E-02 0.  1.
          1   -1    0    0    0  501  0.00000000000E+00 -0.00000000000E+00 -0.70559359137E+00  0.70561159130E+00  0.50400000000E-02 0.  1.
          2    1    1    2    0  502  0.27414171852E+01  0.24686825523E+02  0.36314997102E+03  0.36399842882E+03  0.25500000000E-02 0.  1.
         -2    1    1    2  502    0 -0.27414171852E+01 -0.24686825523E+02  0.54788173559E+03  0.54844448299E+03  0.25500000000E-02 0.  1.
<mgrwt>
<rscale>  0 0.50727673E+02</rscale>
<asrwt>0</asrwt>
<pdfrwt beam="2">  1        1 0.10855452E-03 0.50727673E+02</pdfrwt>
<pdfrwt beam="1">  1       -1 0.14026693E+00 0.50727673E+02</pdfrwt>
<totfact> 0.12785563E+05</totfact>
</mgrwt>
</event>
<event>
 4    1  0.1893769E-002  0.4672151E+02  0.7818608E-02  0.1463872E+00
          1   -1    0    0    0  501  0.00000000000E+00  0.00000000000E+00  0.50899170823E+01  0.50899195776E+01  0.50400000000E-02 0.  1.
         -1   -1    0    0  501    0 -0.00000000000E+00 -0.00000000000E+00 -0.10721681774E+03  0.10721681786E+03  0.50400000000E-02 0.  1.
          2    1    1    2    0  502  0.33158514906E+01 -0.22455506060E+02 -0.37792621158E+02  0.44085449346E+02  0.25500000000E-02 0.  1.
         -2    1    1    2  502    0 -0.33158514906E+01  0.22455506060E+02 -0.64334279503E+02  0.68221288093E+02  0.25500000000E-02 0.  1.
<mgrwt>
<rscale>  0 0.46721509E+02</rscale>
<asrwt>0</asrwt>
<pdfrwt beam="1">  1        1 0.78306445E-03 0.46721509E+02</pdfrwt>
<pdfrwt beam="2">  1       -1 0.16494894E-01 0.46721509E+02</pdfrwt>
<totfact> 0.43475115E+05</totfact>
</mgrwt>
</event>
<event>
 4    1  0.1893769E-002  0.5637075E+02  0.7818608E-02  0.1413726E+00
         -1   -1    0    0  501    0 -0.00000000000E+00  0.00000000000E+00  0.32106166729E+00  0.32110122361E+00  0.50400000000E-02 0.  1.
          1   -1    0    0    0  501  0.00000000000E+00 -0.00000000000E+00 -0.24741866852E+04  0.24741866853E+04  0.50400000000E-02 0.  1.
          2    1    1    2    0  502 -0.17038505677E+02  0.21679927040E+02 -0.14932159432E+04  0.14934705163E+04  0.25500000000E-02 0. -1.
         -2    1    1    2  502    0  0.17038505677E+02 -0.21679927040E+02 -0.98064968039E+03  0.98103727022E+03  0.25500000000E-02 0. -1.
<mgrwt>
<rscale>  0 0.56370753E+02</rscale>
<asrwt>0</asrwt>
<pdfrwt beam="2">  1        1 0.38062884E+00 0.56370753E+02</pdfrwt>
<pdfrwt beam="1">  1       -1 0.49399127E-04 0.56370753E+02</pdfrwt>
<totfact> 0.18799626E+05</totfact>
</mgrwt>
</event>
<event>
 4    1  0.1893769E-002  0.4055360E+02  0.7818608E-02  0.1504177E+00
         -1   -1    0    0  501    0 -0.00000000000E+00  0.00000000000E+00  0.90683370815E+01  0.90683384821E+01  0.50400000000E-02 0. -1.
          1   -1    0    0    0  501  0.00000000000E+00 -0.00000000000E+00 -0.45338925171E+02  0.45338925451E+02  0.50400000000E-02 0. -1.
          2    1    1    2    0  502 -0.67575292640E+01  0.19069481814E+02 -0.16315758829E+02  0.25990639297E+02  0.25500000000E-02 0.  1.
         -2    1    1    2  502    0  0.67575292640E+01 -0.19069481814E+02 -0.19954829261E+02  0.28416624636E+02  0.25500000000E-02 0.  1.
<mgrwt>
<rscale>  0 0.40553604E+02</rscale>
<asrwt>0</asrwt>
<pdfrwt beam="2">  1        1 0.69752193E-02 0.40553604E+02</pdfrwt>
<pdfrwt beam="1">  1       -1 0.13951289E-02 0.40553604E+02</pdfrwt>
<totfact> 0.78300082E+05</totfact>
</mgrwt>
</event>
<event>
 4    1  0.1893769E-002  0.5085882E+02  0.7818608E-02  0.1440764E+00
         -1   -1    0    0  501    0 -0.00000000000E+00  0.00000000000E+00  0.10929462320E+02  0.10929463482E+02  0.50400000000E-02 0. -1.
          1   -1    0    0    0  501  0.00000000000E+00 -0.00000000000E+00 -0.59166203932E+02  0.59166204146E+02  0.50400000000E-02 0. -1.
          2    1    1    2    0  502 -0.20935903348E+02 -0.13084971333E+02 -0.32516176702E+02  0.40826832814E+02  0.25500000000E-02 0. -1.
         -2    1    1    2  502    0  0.20935903348E+02  0.13084971333E+02 -0.15720564910E+02  0.29268834815E+02  0.25500000000E-02 0. -1.
<mgrwt>
<rscale>  0 0.50858818E+02</rscale>
<asrwt>0</asrwt>
<pdfrwt beam="2">  1        1 0.91024928E-02 0.50858818E+02</pdfrwt>
<pdfrwt beam="1">  1       -1 0.16814559E-02 0.50858818E+02</pdfrwt>
<totfact> 0.45422029E+05</totfact>
</mgrwt>
</event>
<event>
 4    1  0.1893769E-002  0.4788027E+02  0.7818608E-02  0.1457122E+00
          1   -1    0    0    0  501  0.00000000000E+00  0.00000000000E+00  0.11198774693E+03  0.11198774704E+03  0.50400000000E-02 0. -1.
         -1   -1    0    0  501    0 -0.00000000000E+00 -0.00000000000E+00 -0.51177916924E+01  0.51177941741E+01  0.50400000000E-02 0. -1.
          2    1    1    2    0  502 -0.22650419014E+02 -0.62001363977E+01  0.64814368806E+02  0.68937548426E+02  0.25500000000E-02 0. -1.
         -2    1    1    2  502    0  0.22650419014E+02  0.62001363977E+01  0.42055586429E+02  0.48167992789E+02  0.25500000000E-02 0. -1.
<mgrwt>
<rscale>  0 0.47880272E+02</rscale>
<asrwt>0</asrwt>
<pdfrwt beam="1">  1        1 0.17228884E-01 0.47880272E+02</pdfrwt>
<pdfrwt beam="2">  1       -1 0.78735278E-03 0.47880272E+02</pdfrwt>
<totfact> 0.57180693E+05</totfact>
</mgrwt>
</event>
<event>
 4    1  0.1893769E-002  0.9248389E+02  0.7818608E-02  0.1296946E+00
         -1   -1    0    0  501    0 -0.00000000000E+00  0.00000000000E+00  0.82398722843E+02  0.82398722997E+02  0.50400000000E-02 0. -1.
          1   -1    0    0    0  501  0.00000000000E+00 -0.00000000000E+00 -0.25950857830E+02  0.25950858319E+02  0.50400000000E-02 0. -1.
          2    1    1    2    0  502 -0.10074378888E+02 -0.30511411419E+02  0.67183559835E+02  0.74471941396E+02  0.25500000000E-02 0.  1.
         -2    1    1    2  502    0  0.10074378888E+02  0.30511411419E+02 -0.10735694821E+02  0.33877639920E+02  0.25500000000E-02 0.  1.
<mgrwt>
<rscale>  0 0.92483892E+02</rscale>
<asrwt>0</asrwt>
<pdfrwt beam="2">  1        1 0.39924398E-02 0.92483892E+02</pdfrwt>
<pdfrwt beam="1">  1       -1 0.12676726E-01 0.92483892E+02</pdfrwt>
<totfact> 0.81206863E+04</totfact>
</mgrwt>
</event>
<event>
 4    1  0.1893769E-002  0.4801185E+02  0.7818608E-02  0.1456370E+00
          1   -1    0    0    0  501  0.00000000000E+00  0.00000000000E+00  0.31113092446E+02  0.31113092854E+02  0.50400000000E-02 0. -1.
         -1   -1    0    0  501    0 -0.00000000000E+00 -0.00000000000E+00 -0.18522247660E+02  0.18522248346E+02  0.50400000000E-02 0. -1.
          2    1    1    2    0  502  0.14474009676E+02 -0.16440987150E+02  0.16450059157E+02  0.27393566167E+02  0.25500000000E-02 0.  1.
         -2    1    1    2  502    0 -0.14474009676E+02  0.16440987150E+02 -0.38592143714E+01  0.22241775033E+02  0.25500000000E-02 0.  1.
<mgrwt>
<rscale>  0 0.48011850E+02</rscale>
<asrwt>0</asrwt>
<pdfrwt beam="1">  1        1 0.47866297E-02 0.48011850E+02</pdfrwt>
<pdfrwt beam="2">  1       -1 0.28495766E-02 0.48011850E+02</pdfrwt>
<totfact> 0.49516540E+05</totfact>
</mgrwt>
</event>
<event>
 4    1  0.1893769E-002  0.4252840E+02  0.7818608E-02  0.1490389E+00
         -1   -1    0    0  501    0 -0.00000000000E+00  0.00000000000E+00  0.79776147256E+00  0.79777739295E+00  0.50400000000E-02 0.  1.
          1   -1    0    0    0  501  0.00000000000E+00 -0.00000000000E+00 -0.56678796111E+03  0.56678796114E+03  0.50400000000E-02 0.  1.
          2    1    1    2    0  502 -0.18168189680E+02  0.96917833283E+01 -0.35380756080E+03  0.35440626951E+03  0.25500000000E-02 0.  1.
         -2    1    1    2  502    0  0.18168189680E+02 -0.96917833283E+01 -0.21218263884E+03  0.21317946902E+03  0.25500000000E-02 0.  1.
<mgrwt>
<rscale>  0 0.42528396E+02</rscale>
<asrwt>0</asrwt>
<pdfrwt beam="2">  1        1 0.87197827E-01 0.42528396E+02</pdfrwt>
<pdfrwt beam="1">  1       -1 0.12273421E-03 0.42528396E+02</pdfrwt>
<totfact> 0.98094200E+05</totfact>
</mgrwt>
</event>
<event>
 4    1  0.1893769E-002  0.4865730E+02  0.7818608E-02  0.1452721E+00
          1   -1    0    0    0  501  0.00000000000E+00  0.00000000000E+00  0.29517164480E+03  0.29517164485E+03  0.50400000000E-02 0. -1.
         -1   -1    0    0  501    0 -0.00000000000E+00 -0.00000000000E+00 -0.20052135916E+01  0.20052199255E+01  0.50400000000E-02 0. -1.
          2    1    1    2    0  502 -0.13498360522E+02 -0.20174289142E+02  0.13659320582E+03  0.13873323885E+03  0.25500000000E-02 0. -1.
         -2    1    1    2  502    0  0.13498360522E+02  0.20174289142E+02  0.15657322539E+03  0.15844362592E+03  0.25500000000E-02 0. -1.
<mgrwt>
<rscale>  0 0.48657297E+02</rscale>
<asrwt>0</asrwt>
<pdfrwt beam="1">  1        1 0.45411055E-01 0.48657297E+02</pdfrwt>
<pdfrwt beam="2">  1       -1 0.30849467E-03 0.48657297E+02</pdfrwt>
<totfact> 0.64409111E+05</totfact>
</mgrwt>
</event>
<event>
 4    1  0.1893769E-002  0.7407900E+02  0.7818608E-02  0.1346747E+00
         -1   -1    0    0  501    0 -0.00000000000E+00  0.00000000000E+00  0.97428913123E+00  0.97430216711E+00  0.50400000000E-02 0. -1.
          1   -1    0    0    0  501  0.00000000000E+00 -0.00000000000E+00 -0.14081194114E+04  0.14081194114E+04  0.50400000000E-02 0. -1.
          2    1    1    2    0  502 -0.32325411089E+01 -0.36632143108E+02 -0.78770134845E+03  0.78855930505E+03  0.25500000000E-02 0.  1.
         -2    1    1    2  502    0  0.32325411089E+01  0.36632143108E+02 -0.61944377385E+03  0.62053440855E+03  0.25500000000E-02 0.  1.
<mgrwt>
<rscale>  0 0.74079002E+02</rscale>
<asrwt>0</asrwt>
<pdfrwt beam="2">  1        1 0.21663213E+00 0.74079002E+02</pdfrwt>
<pdfrwt beam="1">  1       -1 0.14989277E-03 0.74079002E+02</pdfrwt>
<totfact> 0.19982727E+05</totfact>
</mgrwt>
</event>
<event>
 4    1  0.1893769E-002  0.4754996E+02  0.7818608E-02  0.1459023E+00
         -1   -1    0    0  501    0 -0.00000000000E+00  0.00000000000E+00  0.82078193204E+00  0.82079740592E+00  0.50400000000E-02 0.  1.
          1   -1    0    0    0  501  0.00000000000E+00 -0.00000000000E+00 -0.68866565369E+03  0.68866565371E+03  0.50400000000E-02 0.  1.
          2    1    1    2    0  502 -0.23566183791E+02 -0.30689541738E+01 -0.33402223545E+03  0.33486659624E+03  0.25500000000E-02 0. -1.
         -2    1    1    2  502    0  0.23566183791E+02  0.30689541738E+01 -0.35382263631E+03  0.35461985488E+03  0.25500000000E-02 0. -1.
<mgrwt>
<rscale>  0 0.47549960E+02</rscale>
<asrwt>0</asrwt>
<pdfrwt beam="2">  1        1 0.10594810E+00 0.47549960E+02</pdfrwt>
<pdfrwt beam="1">  1       -1 0.12627589E-03 0.47549960E+02</pdfrwt>
<totfact> 0.75144106E+05</totfact>
</mgrwt>
</event>
<event>
 4    1  0.1893769E-002  0.6572104E+02  0.7818608E-02  0.1375280E+00
          1   -1    0    0    0  501  0.00000000000E+00  0.00000000000E+00  0.13677222064E+02  0.13677222993E+02  0.50400000000E-02 0.  1.
         -1   -1    0    0  501    0 -0.00000000000E+00 -0.00000000000E+00 -0.78949781636E+02  0.78949781797E+02  0.50400000000E-02 0.  1.
          2    1    1    2    0  502 -0.31111666723E+02  0.87266355990E+01 -0.41060152698E+02  0.52249651876E+02  0.25500000000E-02 0.  1.
         -2    1    1    2  502    0  0.31111666723E+02 -0.87266355990E+01 -0.24212406874E+02  0.40377352913E+02  0.25500000000E-02 0.  1.
<mgrwt>
<rscale>  0 0.65721039E+02</rscale>
<asrwt>0</asrwt>
<pdfrwt beam="1">  1        1 0.21041881E-02 0.65721039E+02</pdfrwt>
<pdfrwt beam="2">  1       -1 0.12146120E-01 0.65721039E+02</pdfrwt>
<totfact> 0.19503318E+05</totfact>
</mgrwt>
</event>
<event>
 4    1  0.1893769E-002  0.9793956E+02  0.7818608E-02  0.1284689E+00
         -1   -1    0    0  501    0 -0.00000000000E+00  0.00000000000E+00  0.97083409923E+01  0.97083423006E+01  0.50400000000E-02 0.  1.
          1   -1    0    0    0  501  0.00000000000E+00 -0.00000000000E+00 -0.24700815427E+03  0.24700815432E+03  0.50400000000E-02 0.  1.
          2    1    1    2    0  502 -0.46435806438E+02 -0.14878814493E+02 -0.13048191470E+03  0.13929534562E+03  0.25500000000E-02 0.  1.
         -2    1    1    2  502    0  0.46435806438E+02  0.14878814493E+02 -0.10681789857E+03  0.11742115100E+03  0.25500000000E-02 0.  1.
<mgrwt>
<rscale>  0 0.97939564E+02</rscale>
<asrwt>0</asrwt>
<pdfrwt beam="2">  1        1 0.38001250E-01 0.97939564E+02</pdfrwt>
<pdfrwt beam="1">  1       -1 0.14935912E-02 0.97939564E+02</pdfrwt>
<totfact> 0.10182392E+05</totfact>
</mgrwt>
</event>
<event>
 4    1  0.1893769E-002  0.5354994E+02  0.7818608E-02  0.1427083E+00
         -1   -1    0    0  501    0 -0.00000000000E+00  0.00000000000E+00  0.17374605855E+03  0.17374605862E+03  0.50400000000E-02 0. -1.
          1   -1    0    0    0  501  0.00000000000E+00 -0.00000000000E+00 -0.41261295959E+01  0.41261326741E+01  0.50400000000E-02 0. -1.
          2    1    1    2    0  502  0.40753001395E+01 -0.22850194615E+02  0.40474258198E+02  0.46657315057E+02  0.25500000000E-02 0. -1.
         -2    1    1    2  502    0 -0.40753001395E+01  0.22850194615E+02  0.12914567075E+03  0.13121487624E+03  0.25500000000E-02 0. -1.
<mgrwt>
<rscale>  0 0.53549941E+02</rscale>
<asrwt>0</asrwt>
<pdfrwt beam="2">  1        1 0.63478943E-03 0.53549941E+02</pdfrwt>
<pdfrwt beam="1">  1       -1 0.26730162E-01 0.53549941E+02</pdfrwt>
<totfact> 0.28048840E+05</totfact>
</mgrwt>
</event>
<event>
 4    1  0.1893769E-002  0.4876126E+02  0.7818608E-02  0.1452140E+00
          1   -1    0    0    0  501  0.00000000000E+00  0.00000000000E+00  0.30842982773E+03  0.30842982777E+03  0.50400000000E-02 0.  1.
         -1   -1    0    0  501    0 -0.00000000000E+00 -0.00000000000E+00 -0.19272263220E+01  0.19272329122E+01  0.50400000000E-02 0.  1.
          2    1    1    2    0  502  0.20474940519E+02  0.86805137648E+01  0.21684883778E+03  0.21798622195E+03  0.25500000000E-02 0.  1.
         -2    1    1    2  502    0 -0.20474940519E+02 -0.86805137648E+01  0.89653763627E+02  0.92370838728E+02  0.25500000000E-02 0.  1.
<mgrwt>
<rscale>  0 0.48761260E+02</rscale>
<asrwt>0</asrwt>
<pdfrwt beam="1">  1        1 0.47450761E-01 0.48761260E+02</pdfrwt>
<pdfrwt beam="2">  1       -1 0.29649675E-03 0.48761260E+02</pdfrwt>
<totfact> 0.64558216E+05</totfact>
</mgrwt>
</event>
<event>
 4    1  0.1893769E-002  0.4737185E+02  0.7818608E-02  0.1460055E+00
          1   -1    0    0    0  501  0.00000000000E+00  0.00000000000E+00  0.14603563250E+01  0.14603650220E+01  0.50400000000E-02 0. -1.
         -1   -1    0    0  501    0 -0.00000000000E+00 -0.00000000000E+00 -0.38416745066E+03  0.38416745069E+03  0.50400000000E-02 0. -1.
          2    1    1    2    0  502  0.12729313884E+02 -0.17531271865E+02 -0.11342518234E+03  0.11547576768E+03  0.25500000000E-02 0.  1.
         -2    1    1    2  502    0 -0.12729313884E+02  0.17531271865E+02 -0.26928191200E+03  0.27015204804E+03  0.25500000000E-02 0.  1.
<mgrwt>
<rscale>  0 0.47371850E+02</rscale>
<asrwt>0</asrwt>
<pdfrwt beam="1">  1        1 0.22467118E-03 0.47371850E+02</pdfrwt>
<pdfrwt beam="2">  1       -1 0.59102605E-01 0.47371850E+02</pdfrwt>
<totfact> 0.28790302E+05</totfact>
</mgrwt>
</event>
<event>
 4    1  0.1893769E-002  0.5315436E+02  0.7818608E-02  0.1429034E+00
          1   -1    0    0    0  501  0.00000000000E+00  0.00000000000E+00  0.14419101082E+02  0.14419101963E+02  0.50400000000E-02 0.  1.
         -1   -1    0    0  501    0 -0.00000000000E+00 -0.00000000000E+00 -0.48986864250E+02  0.48986864509E+02  0.50400000000E-02 0.  1.
          2    1    1    2    0  502  0.22516339868E+02 -0.40163048604E+01 -0.11369551654E+01  0.22899976841E+02  0.25500000000E-02 0.  1.
         -2    1    1    2  502    0 -0.22516339868E+02  0.40163048604E+01 -0.33430808002E+02  0.40505989631E+02  0.25500000000E-02 0.  1.
<mgrwt>
<rscale>  0 0.53154363E+02</rscale>
<asrwt>0</asrwt>
<pdfrwt beam="1">  1        1 0.22183234E-02 0.53154363E+02</pdfrwt>
<pdfrwt beam="2">  1       -1 0.75364407E-02 0.53154363E+02</pdfrwt>
<totfact> 0.35234490E+05</totfact>
</mgrwt>
</event>
<event>
 4    1  0.1893769E-002  0.8363066E+02  0.7818608E-02  0.1319053E+00
         -1   -1    0    0  501    0 -0.00000000000E+00  0.00000000000E+00  0.52900568919E+01  0.52900592928E+01  0.50400000000E-02 0. -1.
          1   -1    0    0    0  501  0.00000000000E+00 -0.00000000000E+00 -0.33052979302E+03  0.33052979306E+03  0.50400000000E-02 0. -1.
          2    1    1    2    0  502 -0.18049100886E+02 -0.18419978455E+02 -0.29479401463E+03  0.29591988227E+03  0.25500000000E-02 0. -1.
         -2    1    1    2  502    0  0.18049100886E+02  0.18419978455E+02 -0.30445721493E+02  0.39899970085E+02  0.25500000000E-02 0. -1.
<mgrwt>
<rscale>  0 0.83630660E+02</rscale>
<asrwt>0</asrwt>
<pdfrwt beam="2">  1        1 0.50850721E-01 0.83630660E+02</pdfrwt>
<pdfrwt beam="1">  1       -1 0.81385536E-03 0.83630660E+02</pdfrwt>
<totfact> 0.16401179E+05</totfact>
</mgrwt>
</event>
<event>
 4    1  0.1893769E-002  0.5168652E+02  0.7818608E-02  0.1436452E+00
          1   -1    0    0    0  501  0.00000000000E+00  0.00000000000E+00  0.12914796889E+04  0.12914796889E+04  0.50400000000E-02 0. -1.
         -1   -1    0    0  501    0 -0.00000000000E+00 -0.00000000000E+00 -0.51712633331E+00  0.51715089307E+00  0.50400000000E-02 0. -1.
          2    1    1    2    0  502  0.25525967070E+02  0.37560059883E+01  0.60847720797E+03  0.60902396932E+03  0.25500000000E-02 0.  1.
         -2    1    1    2  502    0 -0.25525967070E+02 -0.37560059883E+01  0.68248535463E+03  0.68297287052E+03  0.25500000000E-02 0.  1.
<mgrwt>
<rscale>  0 0.51686518E+02</rscale>
<asrwt>0</asrwt>
<pdfrwt beam="1">  1        1 0.19868727E+00 0.51686518E+02</pdfrwt>
<pdfrwt beam="2">  1       -1 0.79560553E-04 0.51686518E+02</pdfrwt>
<totfact> 0.52739457E+05</totfact>
</mgrwt>
</event>
<event>
 4    1  0.1893769E-002  0.7452092E+02  0.7818608E-02  0.1345361E+00
          1   -1    0    0    0  501  0.00000000000E+00  0.00000000000E+00  0.49909914496E+02  0.49909914751E+02  0.50400000000E-02 0. -1.
         -1   -1    0    0  501    0 -0.00000000000E+00 -0.00000000000E+00 -0.27816957977E+02  0.27816958434E+02  0.50400000000E-02 0. -1.
          2    1    1    2    0  502 -0.43379357306E+01  0.36986583756E+02  0.12331110271E+02  0.39228578248E+02  0.25500000000E-02 0. -1.
         -2    1    1    2  502    0  0.43379357306E+01 -0.36986583756E+02  0.97618462476E+01  0.38498294937E+02  0.25500000000E-02 0. -1.
<mgrwt>
<rscale>  0 0.74520924E+02</rscale>
<asrwt>0</asrwt>
<pdfrwt beam="1">  1        1 0.76784484E-02 0.74520924E+02</pdfrwt>
<pdfrwt beam="2">  1       -1 0.42795321E-02 0.74520924E+02</pdfrwt>
<totfact> 0.16326397E+05</totfact>
</mgrwt>
</event>
<event>
 4    1  0.1893769E-002  0.7625521E+02  0.7818608E-02  0.1340028E+00
          1   -1    0    0    0  501  0.00000000000E+00  0.00000000000E+00  0.45512938906E+03  0.45512938909E+03  0.50400000000E-02 0. -1.
         -1   -1    0    0  501    0 -0.00000000000E+00 -0.00000000000E+00 -0.31940663579E+01  0.31940703343E+01  0.50400000000E-02 0. -1.
          2    1    1    2    0  502  0.29858554874E+02  0.21770929191E+02  0.16951871294E+03  0.17349956974E+03  0.25500000000E-02 0. -1.
         -2    1    1    2  502    0 -0.29858554874E+02 -0.21770929191E+02  0.28241660977E+03  0.28482388968E+03  0.25500000000E-02 0. -1.
<mgrwt>
<rscale>  0 0.76255213E+02</rscale>
<asrwt>0</asrwt>
<pdfrwt beam="1">  1        1 0.70019916E-01 0.76255213E+02</pdfrwt>
<pdfrwt beam="2">  1       -1 0.49139507E-03 0.76255213E+02</pdfrwt>
<totfact> 0.22005471E+05</totfact>
</mgrwt>
</event>
<event>
 4    1  0.1893769E-002  0.6116928E+02  0.7818608E-02  0.1392989E+00
          1   -1    0    0    0  501  0.00000000000E+00  0.00000000000E+00  0.12798188593E+03  0.12798188603E+03  0.50400000000E-02 0. -1.
         -1   -1    0    0  501    0 -0.00000000000E+00 -0.00000000000E+00 -0.73090037557E+01  0.73090054934E+01  0.50400000000E-02 0. -1.
          2    1    1    2    0  502 -0.18141320100E+02  0.19876995216E+02  0.92480477717E+02  0.96316359976E+02  0.25500000000E-02 0. -1.
         -2    1    1    2  502    0  0.18141320100E+02 -0.19876995216E+02  0.28192404462E+02  0.38974531551E+02  0.25500000000E-02 0. -1.
<mgrwt>
<rscale>  0 0.61169280E+02</rscale>
<asrwt>0</asrwt>
<pdfrwt beam="1">  1        1 0.19689521E-01 0.61169280E+02</pdfrwt>
<pdfrwt beam="2">  1       -1 0.11244623E-02 0.61169280E+02</pdfrwt>
<totfact> 0.31283705E+05</totfact>
</mgrwt>
</event>
<event>
 4    1  0.1893769E-002  0.5145838E+02  0.7818608E-02  0.1437631E+00
          1   -1    0    0    0  501  0.00000000000E+00  0.00000000000E+00  0.54856773297E+02  0.54856773528E+02  0.50400000000E-02 0. -1.
         -1   -1    0    0  501    0 -0.00000000000E+00 -0.00000000000E+00 -0.12067629648E+02  0.12067630701E+02  0.50400000000E-02 0. -1.
          2    1    1    2    0  502  0.10665547858E+02 -0.23414295423E+02  0.21511759172E+02  0.33537127641E+02  0.25500000000E-02 0. -1.
         -2    1    1    2  502    0 -0.10665547858E+02  0.23414295423E+02  0.21277384477E+02  0.33387276588E+02  0.25500000000E-02 0. -1.
<mgrwt>
<rscale>  0 0.51458382E+02</rscale>
<asrwt>0</asrwt>
<pdfrwt beam="1">  1        1 0.84395038E-02 0.51458382E+02</pdfrwt>
<pdfrwt beam="2">  1       -1 0.18565585E-02 0.51458382E+02</pdfrwt>
<totfact> 0.43733749E+05</totfact>
</mgrwt>
</event>
<event>
 4    1  0.1893769E-002  0.6391569E+02  0.7818608E-02  0.1382097E+00
         -1   -1    0    0  501    0 -0.00000000000E+00  0.00000000000E+00  0.25899008734E+02  0.25899009224E+02  0.50400000000E-02 0.  1.
          1   -1    0    0    0  501  0.00000000000E+00 -0.00000000000E+00 -0.39434091878E+02  0.39434092200E+02  0.50400000000E-02 0.  1.
          2    1    1    2    0  502  0.19853390432E+02  0.25032964176E+02 -0.74885221794E+01  0.32815916535E+02  0.25500000000E-02 0.  1.
         -2    1    1    2  502    0 -0.19853390432E+02 -0.25032964176E+02 -0.60465609650E+01  0.32517184889E+02  0.25500000000E-02 0.  1.
<mgrwt>
<rscale>  0 0.63915692E+02</rscale>
<asrwt>0</asrwt>
<pdfrwt beam="2">  1        1 0.60667834E-02 0.63915692E+02</pdfrwt>
<pdfrwt beam="1">  1       -1 0.39844630E-02 0.63915692E+02</pdfrwt>
<totfact> 0.23975776E+05</totfact>
</mgrwt>
</event>
<event>
 4    1  0.1893769E-002  0.5667592E+02  0.7818608E-02  0.1412336E+00
         -1   -1    0    0  501    0 -0.00000000000E+00  0.00000000000E+00  0.10125451947E+02  0.10125453202E+02  0.50400000000E-02 0.  1.
          1   -1    0    0    0  501  0.00000000000E+00 -0.00000000000E+00 -0.79309039695E+02  0.79309039856E+02  0.50400000000E-02 0.  1.
          2    1    1    2    0  502 -0.71162728787E+01 -0.23657617530E+02 -0.12685694472E+02  0.27771407195E+02  0.25500000000E-02 0. -1.
         -2    1    1    2  502    0  0.71162728787E+01  0.23657617530E+02 -0.56497893276E+02  0.61663085862E+02  0.25500000000E-02 0. -1.
<mgrwt>
<rscale>  0 0.56675918E+02</rscale>
<asrwt>0</asrwt>
<pdfrwt beam="2">  1        1 0.12201390E-01 0.56675918E+02</pdfrwt>
<pdfrwt beam="1">  1       -1 0.15577620E-02 0.56675918E+02</pdfrwt>
<totfact> 0.35596751E+05</totfact>
</mgrwt>
</event>
<event>
 4    1  0.1893769E-002  0.7647532E+02  0.7818608E-02  0.1339362E+00
         -1   -1    0    0  501    0 -0.00000000000E+00  0.00000000000E+00  0.15117047897E+03  0.15117047905E+03  0.50400000000E-02 0.  1.
          1   -1    0    0    0  501  0.00000000000E+00 -0.00000000000E+00 -0.96719842953E+01  0.96719856085E+01  0.50400000000E-02 0.  1.
          2    1    1    2    0  502  0.21568882441E+02 -0.30827710842E+02  0.85099470771E+02  0.93045603751E+02  0.25500000000E-02 0.  1.
         -2    1    1    2  502    0 -0.21568882441E+02  0.30827710842E+02  0.56399023901E+02  0.67796860908E+02  0.25500000000E-02 0.  1.
<mgrwt>
<rscale>  0 0.76475319E+02</rscale>
<asrwt>0</asrwt>
<pdfrwt beam="2">  1        1 0.14879979E-02 0.76475319E+02</pdfrwt>
<pdfrwt beam="1">  1       -1 0.23256994E-01 0.76475319E+02</pdfrwt>
<totfact> 0.11755251E+05</totfact>
</mgrwt>
</event>
<event>
 4    1  0.1893769E-002  0.5798326E+02  0.7818608E-02  0.1406495E+00
         -1   -1    0    0  501    0 -0.00000000000E+00  0.00000000000E+00  0.26812881446E+03  0.26812881451E+03  0.50400000000E-02 0.  1.
          1   -1    0    0    0  501  0.00000000000E+00 -0.00000000000E+00 -0.31347395439E+01  0.31347435956E+01  0.50400000000E-02 0.  1.
          2    1    1    2    0  502 -0.16423116731E+00 -0.27594035000E+02  0.17409369894E+03  0.17626705238E+03  0.25500000000E-02 0.  1.
         -2    1    1    2  502    0  0.16423116731E+00  0.27594035000E+02  0.90900375978E+02  0.94996505719E+02  0.25500000000E-02 0.  1.
<mgrwt>
<rscale>  0 0.57983258E+02</rscale>
<asrwt>0</asrwt>
<pdfrwt beam="2">  1        1 0.48226799E-03 0.57983258E+02</pdfrwt>
<pdfrwt beam="1">  1       -1 0.41250582E-01 0.57983258E+02</pdfrwt>
<totfact> 0.20199219E+05</totfact>
</mgrwt>
</event>
<event>
 4    1  0.1893769E-002  0.7120630E+02  0.7818608E-02  0.1356038E+00
         -1   -1    0    0  501    0 -0.00000000000E+00  0.00000000000E+00  0.15711342438E+01  0.15711423277E+01  0.50400000000E-02 0. -1.
          1   -1    0    0    0  501  0.00000000000E+00 -0.00000000000E+00 -0.80679363610E+03  0.80679363611E+03  0.50400000000E-02 0. -1.
          2    1    1    2    0  502  0.35003517954E+01  0.33705936927E+02 -0.27864511035E+03  0.28069812998E+03  0.25500000000E-02 0. -1.
         -2    1    1    2  502    0 -0.35003517954E+01 -0.33705936927E+02 -0.52657739151E+03  0.52766664846E+03  0.25500000000E-02 0. -1.
<mgrwt>
<rscale>  0 0.71206303E+02</rscale>
<asrwt>0</asrwt>
<pdfrwt beam="2">  1        1 0.12412177E+00 0.71206303E+02</pdfrwt>
<pdfrwt beam="1">  1       -1 0.24171423E-03 0.71206303E+02</pdfrwt>
<totfact> 0.26928488E+05</totfact>
</mgrwt>
</event>
<event>
 4    1  0.1893769E-002  0.8652731E+02  0.7818608E-02  0.1311486E+00
          1   -1    0    0    0  501  0.00000000000E+00  0.00000000000E+00  0.70388755816E+03  0.70388755818E+03  0.50400000000E-02 0.  1.
         -1   -1    0    0  501    0 -0.00000000000E+00 -0.00000000000E+00 -0.26591492759E+01  0.26591540521E+01  0.50400000000E-02 0.  1.
          2    1    1    2    0  502  0.30652255531E+02 -0.28671837802E+02  0.43629797164E+03  0.43831216629E+03  0.25500000000E-02 0. -1.
         -2    1    1    2  502    0 -0.30652255531E+02  0.28671837802E+02  0.26493043724E+03  0.26823454594E+03  0.25500000000E-02 0. -1.
<mgrwt>
<rscale>  0 0.86527309E+02</rscale>
<asrwt>0</asrwt>
<pdfrwt beam="1">  1        1 0.10829031E+00 0.86527309E+02</pdfrwt>
<pdfrwt beam="2">  1       -1 0.40910056E-03 0.86527309E+02</pdfrwt>
<totfact> 0.16321399E+05</totfact>
</mgrwt>
</event>
<event>
 4    1  0.1893769E-002  0.4274388E+02  0.7818608E-02  0.1488938E+00
          1   -1    0    0    0  501  0.00000000000E+00  0.00000000000E+00  0.16984015556E+02  0.16984016304E+02  0.50400000000E-02 0. -1.
         -1   -1    0    0  501    0 -0.00000000000E+00 -0.00000000000E+00 -0.26893509271E+02  0.26893509743E+02  0.50400000000E-02 0. -1.
          2    1    1    2    0  502  0.20860601801E+02 -0.38233733669E+01 -0.76661850965E+01  0.22551126176E+02  0.25500000000E-02 0. -1.
         -2    1    1    2  502    0 -0.20860601801E+02  0.38233733669E+01 -0.22433086185E+01  0.21326399871E+02  0.25500000000E-02 0. -1.
<mgrwt>
<rscale>  0 0.42743879E+02</rscale>
<asrwt>0</asrwt>
<pdfrwt beam="1">  1        1 0.26129255E-02 0.42743879E+02</pdfrwt>
<pdfrwt beam="2">  1       -1 0.41374631E-02 0.42743879E+02</pdfrwt>
<totfact> 0.63464505E+05</totfact>
</mgrwt>
</event>
<event>
 4    1  0.1893769E-002  0.5242017E+02  0.7818608E-02  0.1432708E+00
          1   -1    0    0    0  501  0.00000000000E+00  0.00000000000E+00  0.41757797728E+02  0.41757798032E+02  0.50400000000E-02 0.  1.
         -1   -1    0    0  501    0 -0.00000000000E+00 -0.00000000000E+00 -0.16451261276E+02  0.16451262048E+02  0.50400000000E-02 0.  1.
          2    1    1    2    0  502 -0.13224617803E+02 -0.21041521724E+02  0.34071374292E+01  0.25084751234E+02  0.25500000000E-02 0. -1.
         -2    1    1    2  502    0  0.13224617803E+02  0.21041521724E+02  0.21899399023E+02  0.33124308846E+02  0.25500000000E-02 0. -1.
<mgrwt>
<rscale>  0 0.52420167E+02</rscale>
<asrwt>0</asrwt>
<pdfrwt beam="1">  1        1 0.64242765E-02 0.52420167E+02</pdfrwt>
<pdfrwt beam="2">  1       -1 0.25309634E-02 0.52420167E+02</pdfrwt>
<totfact> 0.40575741E+05</totfact>
</mgrwt>
</event>
<event>
 4    1  0.1893769E-002  0.8996215E+02  0.7818608E-02  0.1302943E+00
          1   -1    0    0    0  501  0.00000000000E+00  0.00000000000E+00  0.10759144048E+03  0.10759144060E+03  0.50400000000E-02 0. -1.
         -1   -1    0    0  501    0 -0.00000000000E+00 -0.00000000000E+00 -0.18805370952E+02  0.18805371628E+02  0.50400000000E-02 0. -1.
          2    1    1    2    0  502 -0.12231646507E+02 -0.20279782930E+02 -0.93363054373E+01  0.25456813973E+02  0.25500000000E-02 0. -1.
         -2    1    1    2  502    0  0.12231646507E+02  0.20279782930E+02  0.98122374963E+02  0.10093999825E+03  0.25500000000E-02 0. -1.
<mgrwt>
<rscale>  0 0.89962148E+02</rscale>
<asrwt>0</asrwt>
<pdfrwt beam="1">  1        1 0.16552529E-01 0.89962148E+02</pdfrwt>
<pdfrwt beam="2">  1       -1 0.28931341E-02 0.89962148E+02</pdfrwt>
<totfact> 0.10966466E+05</totfact>
</mgrwt>
</event>
<event>
 4    1  0.1893769E-002  0.6361873E+02  0.7818608E-02  0.1383244E+00
         -1   -1    0    0  501    0 -0.00000000000E+00  0.00000000000E+00  0.69881261294E+03  0.69881261296E+03  0.50400000000E-02 0.  1.
          1   -1    0    0    0  501  0.00000000000E+00 -0.00000000000E+00 -0.14479312406E+01  0.14479400123E+01  0.50400000000E-02 0.  1.
          2    1    1    2    0  502 -0.21123878167E+02  0.85837814324E+00  0.87073138993E+02  0.89602938470E+02  0.25500000000E-02 0.  1.
         -2    1    1    2  502    0  0.21123878167E+02 -0.85837814324E+00  0.61029154271E+03  0.61065761450E+03  0.25500000000E-02 0.  1.
<mgrwt>
<rscale>  0 0.63618730E+02</rscale>
<asrwt>0</asrwt>
<pdfrwt beam="2">  1        1 0.22275850E-03 0.63618730E+02</pdfrwt>
<pdfrwt beam="1">  1       -1 0.10751003E+00 0.63618730E+02</pdfrwt>
<totfact> 0.93561535E+04</totfact>
</mgrwt>
</event>
<event>
 4    1  0.1893769E-002  0.5754642E+02  0.7818608E-02  0.1408427E+00
          1   -1    0    0    0  501  0.00000000000E+00  0.00000000000E+00  0.20475792387E+03  0.20475792394E+03  0.50400000000E-02 0. -1.
         -1   -1    0    0  501    0 -0.00000000000E+00 -0.00000000000E+00 -0.40432976191E+01  0.40433007603E+01  0.50400000000E-02 0. -1.
          2    1    1    2    0  502  0.20552974341E+02  0.13511678400E+02  0.46185055444E+02  0.52326375379E+02  0.25500000000E-02 0. -1.
         -2    1    1    2  502    0 -0.20552974341E+02 -0.13511678400E+02  0.15452957081E+03  0.15647484932E+03  0.25500000000E-02 0. -1.
<mgrwt>
<rscale>  0 0.57546418E+02</rscale>
<asrwt>0</asrwt>
<pdfrwt beam="1">  1        1 0.31501225E-01 0.57546418E+02</pdfrwt>
<pdfrwt beam="2">  1       -1 0.62204591E-03 0.57546418E+02</pdfrwt>
<totfact> 0.39577503E+05</totfact>
</mgrwt>
</event>
<event>
 4    1  0.1893769E-002  0.4724844E+02  0.7818608E-02  0.1460774E+00
         -1   -1    0    0  501    0 -0.00000000000E+00  0.00000000000E+00  0.11073367005E+01  0.11073481701E+01  0.50400000000E-02 0. -1.
          1   -1    0    0    0  501  0.00000000000E+00 -0.00000000000E+00 -0.50400293229E+03  0.50400293231E+03  0.50400000000E-02 0. -1.
          2    1    1    2    0  502 -0.21835489535E+02  0.30535007310E+01 -0.34215440550E+03  0.34286403964E+03  0.25500000000E-02 0.  1.
         -2    1    1    2  502    0  0.21835489535E+02 -0.30535007310E+01 -0.16074119009E+03  0.16224624084E+03  0.25500000000E-02 0.  1.
<mgrwt>
<rscale>  0 0.47248443E+02</rscale>
<asrwt>0</asrwt>
<pdfrwt beam="2">  1        1 0.77538731E-01 0.47248443E+02</pdfrwt>
<pdfrwt beam="1">  1       -1 0.17036078E-03 0.47248443E+02</pdfrwt>
<totfact> 0.75022345E+05</totfact>
</mgrwt>
</event>
<event>
 4    1  0.1893769E-002  0.5115511E+02  0.7818608E-02  0.1439209E+00
          1   -1    0    0    0  501  0.00000000000E+00  0.00000000000E+00  0.26624414673E+02  0.26624415151E+02  0.50400000000E-02 0.  1.
         -1   -1    0    0  501    0 -0.00000000000E+00 -0.00000000000E+00 -0.24571854038E+02  0.24571854555E+02  0.50400000000E-02 0.  1.
          2    1    1    2    0  502  0.99975490154E+01 -0.23051415719E+02  0.58147407255E+01  0.25790113788E+02  0.25500000000E-02 0.  1.
         -2    1    1    2  502    0 -0.99975490154E+01  0.23051415719E+02 -0.37621800898E+01  0.25406155917E+02  0.25500000000E-02 0.  1.
<mgrwt>
<rscale>  0 0.51155108E+02</rscale>
<asrwt>0</asrwt>
<pdfrwt beam="1">  1        1 0.40960639E-02 0.51155108E+02</pdfrwt>
<pdfrwt beam="2">  1       -1 0.37802853E-02 0.51155108E+02</pdfrwt>
<totfact> 0.41450675E+05</totfact>
</mgrwt>
</event>
<event>
 4    1  0.1893769E-002  0.5689395E+02  0.7818608E-02  0.1411349E+00
          1   -1    0    0    0  501  0.00000000000E+00  0.00000000000E+00  0.15543524066E+04  0.15543524066E+04  0.50400000000E-02 0.  1.
         -1   -1    0    0  501    0 -0.00000000000E+00 -0.00000000000E+00 -0.52061003105E+00  0.52063442648E+00  0.50400000000E-02 0.  1.
          2    1    1    2    0  502 -0.39554933936E+01 -0.28083301311E+02  0.71634164522E+03  0.71690283193E+03  0.25500000000E-02 0.  1.
         -2    1    1    2  502    0  0.39554933936E+01  0.28083301311E+02  0.83749015130E+03  0.83797020906E+03  0.25500000000E-02 0.  1.
<mgrwt>
<rscale>  0 0.56893951E+02</rscale>
<asrwt>0</asrwt>
<pdfrwt beam="1">  1        1 0.23912894E+00 0.56893951E+02</pdfrwt>
<pdfrwt beam="2">  1       -1 0.80096466E-04 0.56893951E+02</pdfrwt>
<totfact> 0.36347034E+05</totfact>
</mgrwt>
</event>
<event>
 4    1  0.1893769E-002  0.6995373E+02  0.7818608E-02  0.1360250E+00
         -1   -1    0    0  501    0 -0.00000000000E+00  0.00000000000E+00  0.35758456398E+02  0.35758456753E+02  0.50400000000E-02 0.  1.
          1   -1    0    0    0  501  0.00000000000E+00 -0.00000000000E+00 -0.34212353823E+02  0.34212354195E+02  0.50400000000E-02 0.  1.
          2    1    1    2    0  502  0.13509095775E+01  0.20697376232E+02  0.28943285560E+02  0.35607866056E+02  0.25500000000E-02 0. -1.
         -2    1    1    2  502    0 -0.13509095775E+01 -0.20697376232E+02 -0.27397182985E+02  0.34362944891E+02  0.25500000000E-02 0. -1.
<mgrwt>
<rscale>  0 0.69953727E+02</rscale>
<asrwt>0</asrwt>
<pdfrwt beam="2">  1        1 0.52634391E-02 0.69953727E+02</pdfrwt>
<pdfrwt beam="1">  1       -1 0.55013010E-02 0.69953727E+02</pdfrwt>
<totfact> 0.18495527E+05</totfact>
</mgrwt>
</event>
<event>
 4    1  0.1893769E-002  0.5824777E+02  0.7818608E-02  0.1405336E+00
         -1   -1    0    0  501    0 -0.00000000000E+00  0.00000000000E+00  0.17753527570E+01  0.17753599110E+01  0.50400000000E-02 0. -1.
          1   -1    0    0    0  501  0.00000000000E+00 -0.00000000000E+00 -0.47776366152E+03  0.47776366155E+03  0.50400000000E-02 0. -1.
          2    1    1    2    0  502  0.14683288107E+02 -0.25145766334E+02 -0.23354363685E+03  0.23535194674E+03  0.25500000000E-02 0. -1.
         -2    1    1    2  502    0 -0.14683288107E+02  0.25145766334E+02 -0.24244467192E+03  0.24418707472E+03  0.25500000000E-02 0. -1.
<mgrwt>
<rscale>  0 0.58247773E+02</rscale>
<asrwt>0</asrwt>
<pdfrwt beam="2">  1        1 0.73502000E-01 0.58247773E+02</pdfrwt>
<pdfrwt beam="1">  1       -1 0.27313213E-03 0.58247773E+02</pdfrwt>
<totfact> 0.44211413E+05</totfact>
</mgrwt>
</event>
<event>
 4    1  0.1893769E-002  0.4793881E+02  0.7818608E-02  0.1456787E+00
          1   -1    0    0    0  501  0.00000000000E+00  0.00000000000E+00  0.11590060546E+03  0.11590060557E+03  0.50400000000E-02 0.  1.
         -1   -1    0    0  501    0 -0.00000000000E+00 -0.00000000000E+00 -0.49571107505E+01  0.49571133126E+01  0.50400000000E-02 0.  1.
          2    1    1    2    0  502 -0.23702378912E+02  0.29075946804E+01  0.50258881711E+02  0.55643616617E+02  0.25500000000E-02 0. -1.
         -2    1    1    2  502    0  0.23702378912E+02 -0.29075946804E+01  0.60684612999E+02  0.65214102265E+02  0.25500000000E-02 0. -1.
<mgrwt>
<rscale>  0 0.47938807E+02</rscale>
<asrwt>0</asrwt>
<pdfrwt beam="1">  1        1 0.17830862E-01 0.47938807E+02</pdfrwt>
<pdfrwt beam="2">  1       -1 0.76263266E-03 0.47938807E+02</pdfrwt>
<totfact> 0.57281622E+05</totfact>
</mgrwt>
</event>
<event>
 4    1  0.1893769E-002  0.9190195E+02  0.7818608E-02  0.1298310E+00
         -1   -1    0    0  501    0 -0.00000000000E+00  0.00000000000E+00  0.30290648055E+01  0.30290689985E+01  0.50400000000E-02 0. -1.
          1   -1    0    0    0  501  0.00000000000E+00 -0.00000000000E+00 -0.69707672759E+03  0.69707672761E+03  0.50400000000E-02 0. -1.
          2    1    1    2    0  502  0.39663049316E+01  0.45046339591E+02 -0.28486022965E+03  0.28842720872E+03  0.25500000000E-02 0. -1.
         -2    1    1    2  502    0 -0.39663049316E+01 -0.45046339591E+02 -0.40918743313E+03  0.41167858788E+03  0.25500000000E-02 0. -1.
<mgrwt>
<rscale>  0 0.91901949E+02</rscale>
<asrwt>0</asrwt>
<pdfrwt beam="2">  1        1 0.10724245E+00 0.91901949E+02</pdfrwt>
<pdfrwt beam="1">  1       -1 0.46601085E-03 0.91901949E+02</pdfrwt>
<totfact> 0.13923048E+05</totfact>
</mgrwt>
</event>
<event>
 4    1  0.1893769E-002  0.6011658E+02  0.7818608E-02  0.1397343E+00
          1   -1    0    0    0  501  0.00000000000E+00  0.00000000000E+00  0.78490660805E+02  0.78490660967E+02  0.50400000000E-02 0. -1.
         -1   -1    0    0  501    0 -0.00000000000E+00 -0.00000000000E+00 -0.11510934802E+02  0.11510935905E+02  0.50400000000E-02 0. -1.
          2    1    1    2    0  502  0.14519006819E+02 -0.23805901418E+02  0.50293527765E+02  0.57506186128E+02  0.25500000000E-02 0.  1.
         -2    1    1    2  502    0 -0.14519006819E+02  0.23805901418E+02  0.16686198238E+02  0.32495410745E+02  0.25500000000E-02 0.  1.
<mgrwt>
<rscale>  0 0.60116585E+02</rscale>
<asrwt>0</asrwt>
<pdfrwt beam="1">  1        1 0.12075487E-01 0.60116585E+02</pdfrwt>
<pdfrwt beam="2">  1       -1 0.17709131E-02 0.60116585E+02</pdfrwt>
<totfact> 0.30527832E+05</totfact>
</mgrwt>
</event>
<event>
 4    1  0.1893769E-002  0.9549065E+02  0.7818608E-02  0.1290075E+00
          1   -1    0    0    0  501  0.00000000000E+00  0.00000000000E+00  0.74871729842E+03  0.74871729844E+03  0.50400000000E-02 0. -1.
         -1   -1    0    0  501    0 -0.00000000000E+00 -0.00000000000E+00 -0.30446932150E+01  0.30446973864E+01  0.50400000000E-02 0. -1.
          2    1    1    2    0  502 -0.26687506994E+02  0.37429401400E+02  0.27127245523E+03  0.27513983370E+03  0.25500000000E-02 0. -1.
         -2    1    1    2  502    0  0.26687506994E+02 -0.37429401400E+02  0.47440014998E+03  0.47662216212E+03  0.25500000000E-02 0. -1.
<mgrwt>
<rscale>  0 0.95490650E+02</rscale>
<asrwt>0</asrwt>
<pdfrwt beam="1">  1        1 0.11518718E+00 0.95490650E+02</pdfrwt>
<pdfrwt beam="2">  1       -1 0.46841504E-03 0.95490650E+02</pdfrwt>
<totfact> 0.12555304E+05</totfact>
</mgrwt>
</event>
<event>
 4    1  0.1893769E-002  0.4270333E+02  0.7818608E-02  0.1489211E+00
         -1   -1    0    0  501    0 -0.00000000000E+00  0.00000000000E+00  0.76805918245E+01  0.76805934781E+01  0.50400000000E-02 0.  1.
          1   -1    0    0    0  501  0.00000000000E+00 -0.00000000000E+00 -0.59356573714E+02  0.59356573928E+02  0.50400000000E-02 0.  1.
          2    1    1    2    0  502 -0.20640244444E+02  0.54620594667E+01 -0.25524469503E+02  0.33276903916E+02  0.25500000000E-02 0. -1.
         -2    1    1    2  502    0  0.20640244444E+02 -0.54620594667E+01 -0.26151512386E+02  0.33760263490E+02  0.25500000000E-02 0. -1.
<mgrwt>
<rscale>  0 0.42703334E+02</rscale>
<asrwt>0</asrwt>
<pdfrwt beam="2">  1        1 0.91317804E-02 0.42703334E+02</pdfrwt>
<pdfrwt beam="1">  1       -1 0.11816297E-02 0.42703334E+02</pdfrwt>
<totfact> 0.70599860E+05</totfact>
</mgrwt>
</event>
<event>
 4    1  0.1893769E-002  0.5758004E+02  0.7818608E-02  0.1408277E+00
         -1   -1    0    0  501    0 -0.00000000000E+00  0.00000000000E+00  0.52058147804E+00  0.52060587481E+00  0.50400000000E-02 0.  1.
          1   -1    0    0    0  501  0.00000000000E+00 -0.00000000000E+00 -0.15921537565E+04  0.15921537565E+04  0.50400000000E-02 0.  1.
          2    1    1    2    0  502  0.25387782759E+02 -0.29591946006E+01 -0.11623206222E+04  0.11626016193E+04  0.25500000000E-02 0.  1.
         -2    1    1    2  502    0 -0.25387782759E+02  0.29591946006E+01 -0.42931255283E+03  0.43007274311E+03  0.25500000000E-02 0.  1.
<mgrwt>
<rscale>  0 0.57580038E+02</rscale>
<asrwt>0</asrwt>
<pdfrwt beam="2">  1        1 0.24494284E+00 0.57580038E+02</pdfrwt>
<pdfrwt beam="1">  1       -1 0.80092610E-04 0.57580038E+02</pdfrwt>
<totfact> 0.34509825E+05</totfact>
</mgrwt>
</event>
<event>
 4    1  0.1893769E-002  0.4327883E+02  0.7818608E-02  0.1485382E+00
         -1   -1    0    0  501    0 -0.00000000000E+00  0.00000000000E+00  0.29718002515E+03  0.29718002519E+03  0.50400000000E-02 0.  1.
          1   -1    0    0    0  501  0.00000000000E+00 -0.00000000000E+00 -0.15756880631E+01  0.15756961235E+01  0.50400000000E-02 0.  1.
          2    1    1    2    0  502  0.17208560428E+02  0.10353644158E+02  0.92177273194E+02  0.94339716977E+02  0.25500000000E-02 0.  1.
         -2    1    1    2  502    0 -0.17208560428E+02 -0.10353644158E+02  0.20342706389E+03  0.20441600433E+03  0.25500000000E-02 0.  1.
<mgrwt>
<rscale>  0 0.43278828E+02</rscale>
<asrwt>0</asrwt>
<pdfrwt beam="2">  1        1 0.24241437E-03 0.43278828E+02</pdfrwt>
<pdfrwt beam="1">  1       -1 0.45719967E-01 0.43278828E+02</pdfrwt>
<totfact> 0.40146552E+05</totfact>
</mgrwt>
</event>
<event>
 4    1  0.1893769E-002  0.4275222E+02  0.7818608E-02  0.1488883E+00
         -1   -1    0    0  501    0 -0.00000000000E+00  0.00000000000E+00  0.88757798107E+01  0.88757812417E+01  0.50400000000E-02 0. -1.
          1   -1    0    0    0  501  0.00000000000E+00 -0.00000000000E+00 -0.51481442568E+02  0.51481442814E+02  0.50400000000E-02 0. -1.
          2    1    1    2    0  502  0.14934972333E+02  0.14709015805E+02 -0.15391915942E+02  0.26006145955E+02  0.25500000000E-02 0.  1.
         -2    1    1    2  502    0 -0.14934972333E+02 -0.14709015805E+02 -0.27213746814E+02  0.34351078101E+02  0.25500000000E-02 0.  1.
<mgrwt>
<rscale>  0 0.42752216E+02</rscale>
<asrwt>0</asrwt>
<pdfrwt beam="2">  1        1 0.79202219E-02 0.42752216E+02</pdfrwt>
<pdfrwt beam="1">  1       -1 0.13655047E-02 0.42752216E+02</pdfrwt>
<totfact> 0.69444471E+05</totfact>
</mgrwt>
</event>
<event>
 4    1  0.1893769E-002  0.8657278E+02  0.7818608E-02  0.1311370E+00
         -1   -1    0    0  501    0 -0.00000000000E+00  0.00000000000E+00  0.13789349544E+02  0.13789350466E+02  0.50400000000E-02 0.  1.
          1   -1    0    0    0  501  0.00000000000E+00 -0.00000000000E+00 -0.13588104956E+03  0.13588104965E+03  0.50400000000E-02 0.  1.
          2    1    1    2    0  502 -0.19968915452E+02 -0.29569985108E+02 -0.10341368841E+03  0.10939621822E+03  0.25500000000E-02 0.  1.
         -2    1    1    2  502    0  0.19968915452E+02  0.29569985108E+02 -0.18678011606E+02  0.40274181900E+02  0.25500000000E-02 0.  1.
<mgrwt>
<rscale>  0 0.86572776E+02</rscale>
<asrwt>0</asrwt>
<pdfrwt beam="2">  1        1 0.20904776E-01 0.86572776E+02</pdfrwt>
<pdfrwt beam="1">  1       -1 0.21214386E-02 0.86572776E+02</pdfrwt>
<totfact> 0.12663101E+05</totfact>
</mgrwt>
</event>
<event>
 4    1  0.1893769E-002  0.5979193E+02  0.7818608E-02  0.1398707E+00
         -1   -1    0    0  501    0 -0.00000000000E+00  0.00000000000E+00  0.22694841199E+02  0.22694841759E+02  0.50400000000E-02 0. -1.
          1   -1    0    0    0  501  0.00000000000E+00 -0.00000000000E+00 -0.39382015174E+02  0.39382015496E+02  0.50400000000E-02 0. -1.
          2    1    1    2    0  502 -0.23225696412E+02  0.17204440853E+02 -0.41344488120E+00  0.28906689573E+02  0.25500000000E-02 0. -1.
         -2    1    1    2  502    0  0.23225696412E+02 -0.17204440853E+02 -0.16273729094E+02  0.33170167682E+02  0.25500000000E-02 0. -1.
<mgrwt>
<rscale>  0 0.59791926E+02</rscale>
<asrwt>0</asrwt>
<pdfrwt beam="2">  1        1 0.60587716E-02 0.59791926E+02</pdfrwt>
<pdfrwt beam="1">  1       -1 0.34915141E-02 0.59791926E+02</pdfrwt>
<totfact> 0.28609099E+05</totfact>
</mgrwt>
</event>
<event>
 4    1  0.1893769E-002  0.7678370E+02  0.7818608E-02  0.1338435E+00
         -1   -1    0    0  501    0 -0.00000000000E+00  0.00000000000E+00  0.23999766629E+03  0.23999766634E+03  0.50400000000E-02 0.  1.
          1   -1    0    0    0  501  0.00000000000E+00 -0.00000000000E+00 -0.61414502991E+01  0.61414523672E+01  0.50400000000E-02 0.  1.
          2    1    1    2    0  502  0.33012734948E+02 -0.17746601452E+02  0.14358517174E+03  0.14839637490E+03  0.25500000000E-02 0.  1.
         -2    1    1    2  502    0 -0.33012734948E+02  0.17746601452E+02  0.90271044248E+02  0.97742743812E+02  0.25500000000E-02 0.  1.
<mgrwt>
<rscale>  0 0.76783696E+02</rscale>
<asrwt>0</asrwt>
<pdfrwt beam="2">  1        1 0.94483900E-03 0.76783696E+02</pdfrwt>
<pdfrwt beam="1">  1       -1 0.36922705E-01 0.76783696E+02</pdfrwt>
<totfact> 0.10252812E+05</totfact>
</mgrwt>
</event>
<event>
 4    1  0.1893769E-002  0.1168201E+03  0.7818608E-02  0.1248437E+00
         -1   -1    0    0  501    0 -0.00000000000E+00  0.00000000000E+00  0.25244422500E+01  0.25244472811E+01  0.50400000000E-02 0. -1.
          1   -1    0    0    0  501  0.00000000000E+00 -0.00000000000E+00 -0.13514796560E+04  0.13514796560E+04  0.50400000000E-02 0. -1.
          2    1    1    2    0  502  0.27889477489E+02 -0.73271314818E+01 -0.12632279317E+04  0.12635570099E+04  0.25500000000E-02 0.  1.
         -2    1    1    2  502    0 -0.27889477489E+02  0.73271314818E+01 -0.85727282056E+02  0.90447093406E+02  0.25500000000E-02 0.  1.
<mgrwt>
<rscale>  0 0.11682013E+03</rscale>
<asrwt>0</asrwt>
<pdfrwt beam="2">  1        1 0.20791937E+00 0.11682013E+03</pdfrwt>
<pdfrwt beam="1">  1       -1 0.38837720E-03 0.11682013E+03</pdfrwt>
<totfact> 0.61406387E+04</totfact>
</mgrwt>
</event>
<event>
 4    1  0.1893769E-002  0.5375276E+02  0.7818608E-02  0.1426091E+00
         -1   -1    0    0  501    0 -0.00000000000E+00  0.00000000000E+00  0.32605518327E+02  0.32605518717E+02  0.50400000000E-02 0. -1.
          1   -1    0    0    0  501  0.00000000000E+00 -0.00000000000E+00 -0.22153914229E+02  0.22153914803E+02  0.50400000000E-02 0. -1.
          2    1    1    2    0  502  0.23009954529E+02 -0.12065276570E+02 -0.17813102985E+01  0.26042311323E+02  0.25500000000E-02 0.  1.
         -2    1    1    2  502    0 -0.23009954529E+02  0.12065276570E+02  0.12232914396E+02  0.28717122197E+02  0.25500000000E-02 0.  1.
<mgrwt>
<rscale>  0 0.53752763E+02</rscale>
<asrwt>0</asrwt>
<pdfrwt beam="2">  1        1 0.34082946E-02 0.53752763E+02</pdfrwt>
<pdfrwt beam="1">  1       -1 0.50162337E-02 0.53752763E+02</pdfrwt>
<totfact> 0.35764050E+05</totfact>
</mgrwt>
</event>
<event>
 4    1  0.1893769E-002  0.5649653E+02  0.7818608E-02  0.1413151E+00
         -1   -1    0    0  501    0 -0.00000000000E+00  0.00000000000E+00  0.39458371687E+01  0.39458403875E+01  0.50400000000E-02 0. -1.
          1   -1    0    0    0  501  0.00000000000E+00 -0.00000000000E+00 -0.20222933706E+03  0.20222933713E+03  0.50400000000E-02 0. -1.
          2    1    1    2    0  502 -0.18518092593E+02 -0.21077747110E+02 -0.87163681472E+02  0.91567999601E+02  0.25500000000E-02 0. -1.
         -2    1    1    2  502    0  0.18518092593E+02  0.21077747110E+02 -0.11111981842E+03  0.11460717791E+03  0.25500000000E-02 0. -1.
<mgrwt>
<rscale>  0 0.56496526E+02</rscale>
<asrwt>0</asrwt>
<pdfrwt beam="2">  1        1 0.31112198E-01 0.56496526E+02</pdfrwt>
<pdfrwt beam="1">  1       -1 0.60705228E-03 0.56496526E+02</pdfrwt>
<totfact> 0.41383125E+05</totfact>
</mgrwt>
</event>
<event>
 4    1  0.1893769E-002  0.4432485E+02  0.7818608E-02  0.1478601E+00
         -1   -1    0    0  501    0 -0.00000000000E+00  0.00000000000E+00  0.48121850551E+01  0.48121876944E+01  0.50400000000E-02 0.  1.
          1   -1    0    0    0  501  0.00000000000E+00 -0.00000000000E+00 -0.10206860245E+03  0.10206860257E+03  0.50400000000E-02 0.  1.
          2    1    1    2    0  502 -0.76431847198E+01 -0.20044894899E+02 -0.35211925781E+02  0.41232218081E+02  0.25500000000E-02 0.  1.
         -2    1    1    2  502    0  0.76431847198E+01  0.20044894899E+02 -0.62044491609E+02  0.65648572183E+02  0.25500000000E-02 0.  1.
<mgrwt>
<rscale>  0 0.44324853E+02</rscale>
<asrwt>0</asrwt>
<pdfrwt beam="2">  1        1 0.15702861E-01 0.44324853E+02</pdfrwt>
<pdfrwt beam="1">  1       -1 0.74033645E-03 0.44324853E+02</pdfrwt>
<totfact> 0.68464567E+05</totfact>
</mgrwt>
</event>
<event>
 4    1  0.1893769E-002  0.7622858E+02  0.7818608E-02  0.1340108E+00
          1   -1    0    0    0  501  0.00000000000E+00  0.00000000000E+00  0.19537078765E+01  0.19537143773E+01  0.50400000000E-02 0. -1.
         -1   -1    0    0  501    0 -0.00000000000E+00 -0.00000000000E+00 -0.74355877925E+03  0.74355877926E+03  0.50400000000E-02 0. -1.
          2    1    1    2    0  502 -0.15731688863E+02 -0.19703728988E+02 -0.65034112903E+03  0.65082970667E+03  0.25500000000E-02 0.  1.
         -2    1    1    2  502    0  0.15731688863E+02  0.19703728988E+02 -0.91263942341E+02  0.94682786972E+02  0.25500000000E-02 0.  1.
<mgrwt>
<rscale>  0 0.76228579E+02</rscale>
<asrwt>0</asrwt>
<pdfrwt beam="1">  1        1 0.30057154E-03 0.76228579E+02</pdfrwt>
<pdfrwt beam="2">  1       -1 0.11439343E+00 0.76228579E+02</pdfrwt>
<totfact> 0.55754248E+04</totfact>
</mgrwt>
</event>
<event>
 4    1  0.1893769E-002  0.1324910E+03  0.7818608E-02  0.1223806E+00
         -1   -1    0    0  501    0 -0.00000000000E+00  0.00000000000E+00  0.39891531270E+01  0.39891563108E+01  0.50400000000E-02 0.  1.
          1   -1    0    0    0  501  0.00000000000E+00 -0.00000000000E+00 -0.11000984833E+04  0.11000984834E+04  0.50400000000E-02 0.  1.
          2    1    1    2    0  502 -0.13845669736E+02  0.62310154432E+02 -0.69576945309E+03  0.69869119772E+03  0.25500000000E-02 0.  1.
         -2    1    1    2  502    0  0.13845669736E+02 -0.62310154432E+02 -0.40033987712E+03  0.40539644194E+03  0.25500000000E-02 0.  1.
<mgrwt>
<rscale>  0 0.13249095E+03</rscale>
<asrwt>0</asrwt>
<pdfrwt beam="2">  1        1 0.16924568E+00 0.13249095E+03</pdfrwt>
<pdfrwt beam="1">  1       -1 0.61371699E-03 0.13249095E+03</pdfrwt>
<totfact> 0.48301015E+04</totfact>
</mgrwt>
</event>
<event>
 4    1  0.1893769E-002  0.5753174E+02  0.7818608E-02  0.1408492E+00
          1   -1    0    0    0  501  0.00000000000E+00  0.00000000000E+00  0.51807980274E+02  0.51807980519E+02  0.50400000000E-02 0.  1.
         -1   -1    0    0  501    0 -0.00000000000E+00 -0.00000000000E+00 -0.15971967283E+02  0.15971968078E+02  0.50400000000E-02 0.  1.
          2    1    1    2    0  502  0.25739628549E+02 -0.10159328625E+02  0.27174772264E+02  0.38784129358E+02  0.25500000000E-02 0.  1.
         -2    1    1    2  502    0 -0.25739628549E+02  0.10159328625E+02  0.86612407272E+01  0.28995819240E+02  0.25500000000E-02 0.  1.
<mgrwt>
<rscale>  0 0.57531744E+02</rscale>
<asrwt>0</asrwt>
<pdfrwt beam="1">  1        1 0.79704586E-02 0.57531744E+02</pdfrwt>
<pdfrwt beam="2">  1       -1 0.24572258E-02 0.57531744E+02</pdfrwt>
<totfact> 0.32587349E+05</totfact>
</mgrwt>
</event>
<event>
 4    1  0.1893769E-002  0.4114276E+02  0.7818608E-02  0.1499966E+00
          1   -1    0    0    0  501  0.00000000000E+00  0.00000000000E+00  0.13617916064E+03  0.13617916073E+03  0.50400000000E-02 0.  1.
         -1   -1    0    0  501    0 -0.00000000000E+00 -0.00000000000E+00 -0.31075339401E+01  0.31075380272E+01  0.50400000000E-02 0.  1.
          2    1    1    2    0  502 -0.30592995233E+01 -0.19949457107E+02  0.53061261595E+02  0.56770041756E+02  0.25500000000E-02 0.  1.
         -2    1    1    2  502    0  0.30592995233E+01  0.19949457107E+02  0.80010365102E+02  0.82516657002E+02  0.25500000000E-02 0.  1.
<mgrwt>
<rscale>  0 0.41142759E+02</rscale>
<asrwt>0</asrwt>
<pdfrwt beam="1">  1        1 0.20950642E-01 0.41142759E+02</pdfrwt>
<pdfrwt beam="2">  1       -1 0.47808243E-03 0.41142759E+02</pdfrwt>
<totfact> 0.85669622E+05</totfact>
</mgrwt>
</event>
<event>
 4    1  0.1893769E-002  0.1768587E+03  0.7818608E-02  0.1170878E+00
          1   -1    0    0    0  501  0.00000000000E+00  0.00000000000E+00  0.16942301783E+04  0.16942301783E+04  0.50400000000E-02 0.  1.
         -1   -1    0    0  501    0 -0.00000000000E+00 -0.00000000000E+00 -0.46155176850E+01  0.46155204368E+01  0.50400000000E-02 0.  1.
          2    1    1    2    0  502  0.42478832098E+02 -0.73395174372E+02  0.60400402730E+03  0.60992800215E+03  0.25500000000E-02 0. -1.
         -2    1    1    2  502    0 -0.42478832098E+02  0.73395174372E+02  0.10856106333E+04  0.10889176966E+04  0.25500000000E-02 0. -1.
<mgrwt>
<rscale>  0 0.17685872E+03</rscale>
<asrwt>0</asrwt>
<pdfrwt beam="1">  1        1 0.26065107E+00 0.17685872E+03</pdfrwt>
<pdfrwt beam="2">  1       -1 0.71007912E-03 0.17685872E+03</pdfrwt>
<totfact> 0.16148425E+04</totfact>
</mgrwt>
</event>
<event>
 4    1  0.1893769E-002  0.4304390E+02  0.7818608E-02  0.1486936E+00
         -1   -1    0    0  501    0 -0.00000000000E+00  0.00000000000E+00  0.14642626569E+01  0.14642713307E+01  0.50400000000E-02 0.  1.
          1   -1    0    0    0  501  0.00000000000E+00 -0.00000000000E+00 -0.31633186858E+03  0.31633186862E+03  0.50400000000E-02 0.  1.
          2    1    1    2    0  502  0.29611757107E+01  0.21297800831E+02 -0.15070978063E+03  0.15223601042E+03  0.25500000000E-02 0. -1.
         -2    1    1    2  502    0 -0.29611757107E+01 -0.21297800831E+02 -0.16415782529E+03  0.16556012954E+03  0.25500000000E-02 0. -1.
<mgrwt>
<rscale>  0 0.43043900E+02</rscale>
<asrwt>0</asrwt>
<pdfrwt beam="2">  1        1 0.48666388E-01 0.43043900E+02</pdfrwt>
<pdfrwt beam="1">  1       -1 0.22527210E-03 0.43043900E+02</pdfrwt>
<totfact> 0.88188992E+05</totfact>
</mgrwt>
</event>
<event>
 4    1  0.1893769E-002  0.4768323E+02  0.7818608E-02  0.1458254E+00
         -1   -1    0    0  501    0 -0.00000000000E+00  0.00000000000E+00  0.61732362659E+00  0.61734420022E+00  0.50400000000E-02 0.  1.
          1   -1    0    0    0  501  0.00000000000E+00 -0.00000000000E+00 -0.92077024848E+03  0.92077024850E+03  0.50400000000E-02 0.  1.
          2    1    1    2    0  502  0.18946048369E+02  0.14438845961E+02 -0.44085328089E+03  0.44149637405E+03  0.25500000000E-02 0. -1.
         -2    1    1    2  502    0 -0.18946048369E+02 -0.14438845961E+02 -0.47929964396E+03  0.47989121864E+03  0.25500000000E-02 0. -1.
<mgrwt>
<rscale>  0 0.47683235E+02</rscale>
<asrwt>0</asrwt>
<pdfrwt beam="2">  1        1 0.14165586E+00 0.47683235E+02</pdfrwt>
<pdfrwt beam="1">  1       -1 0.94975186E-04 0.47683235E+02</pdfrwt>
<totfact> 0.72709549E+05</totfact>
</mgrwt>
</event>
<event>
 4    1  0.1893769E-002  0.8721161E+02  0.7818608E-02  0.1309748E+00
         -1   -1    0    0  501    0 -0.00000000000E+00  0.00000000000E+00  0.38927537038E+02  0.38927537364E+02  0.50400000000E-02 0. -1.
          1   -1    0    0    0  501  0.00000000000E+00 -0.00000000000E+00 -0.48846297628E+02  0.48846297888E+02  0.50400000000E-02 0. -1.
          2    1    1    2    0  502 -0.31782259097E+02 -0.18854684613E+02  0.18338392880E+02  0.41254185062E+02  0.25500000000E-02 0. -1.
         -2    1    1    2  502    0  0.31782259097E+02  0.18854684613E+02 -0.28257153470E+02  0.46519650191E+02  0.25500000000E-02 0. -1.
<mgrwt>
<rscale>  0 0.87211607E+02</rscale>
<asrwt>0</asrwt>
<pdfrwt beam="2">  1        1 0.75148150E-02 0.87211607E+02</pdfrwt>
<pdfrwt beam="1">  1       -1 0.59888519E-02 0.87211607E+02</pdfrwt>
<totfact> 0.10575664E+05</totfact>
</mgrwt>
</event>
<event>
 4    1  0.1893769E-002  0.5298737E+02  0.7818608E-02  0.1429864E+00
          1   -1    0    0    0  501  0.00000000000E+00  0.00000000000E+00  0.72123729949E+01  0.72123747558E+01  0.50400000000E-02 0.  1.
         -1   -1    0    0  501    0 -0.00000000000E+00 -0.00000000000E+00 -0.97320968213E+02  0.97320968343E+02  0.50400000000E-02 0.  1.
          2    1    1    2    0  502 -0.24111034861E+02  0.33162777137E+01 -0.24403383764E+02  0.34465415210E+02  0.25500000000E-02 0.  1.
         -2    1    1    2  502    0  0.24111034861E+02 -0.33162777137E+01 -0.65705211454E+02  0.70067927889E+02  0.25500000000E-02 0.  1.
<mgrwt>
<rscale>  0 0.52987365E+02</rscale>
<asrwt>0</asrwt>
<pdfrwt beam="1">  1        1 0.11095961E-02 0.52987365E+02</pdfrwt>
<pdfrwt beam="2">  1       -1 0.14972456E-01 0.52987365E+02</pdfrwt>
<totfact> 0.32378129E+05</totfact>
</mgrwt>
</event>
<event>
 4    1  0.1893769E-002  0.4691278E+02  0.7818608E-02  0.1462742E+00
          1   -1    0    0    0  501  0.00000000000E+00  0.00000000000E+00  0.17972510341E+04  0.17972510341E+04  0.50400000000E-02 0. -1.
         -1   -1    0    0  501    0 -0.00000000000E+00 -0.00000000000E+00 -0.30611470258E+00  0.30615619010E+00  0.50400000000E-02 0. -1.
          2    1    1    2    0  502 -0.17633408196E+02  0.14316104198E+02  0.11229274656E+04  0.11231571488E+04  0.25500000000E-02 0. -1.
         -2    1    1    2  502    0  0.17633408196E+02 -0.14316104198E+02  0.67401745373E+03  0.67440004142E+03  0.25500000000E-02 0. -1.
<mgrwt>
<rscale>  0 0.46912781E+02</rscale>
<asrwt>0</asrwt>
<pdfrwt beam="1">  1        1 0.27650304E+00 0.46912781E+02</pdfrwt>
<pdfrwt beam="2">  1       -1 0.47097271E-04 0.46912781E+02</pdfrwt>
<totfact> 0.50834751E+05</totfact>
</mgrwt>
</event>
<event>
 4    1  0.1893769E-002  0.8031370E+02  0.7818608E-02  0.1328164E+00
          1   -1    0    0    0  501  0.00000000000E+00  0.00000000000E+00  0.41411707258E+01  0.41411737928E+01  0.50400000000E-02 0. -1.
         -1   -1    0    0  501    0 -0.00000000000E+00 -0.00000000000E+00 -0.38940002745E+03  0.38940002748E+03  0.50400000000E-02 0. -1.
          2    1    1    2    0  502 -0.30317344454E+02  0.46884434881E+01 -0.65657615207E+02  0.72470996394E+02  0.25500000000E-02 0.  1.
         -2    1    1    2  502    0  0.30317344454E+02 -0.46884434881E+01 -0.31960124152E+03  0.32107020488E+03  0.25500000000E-02 0.  1.
<mgrwt>
<rscale>  0 0.80313700E+02</rscale>
<asrwt>0</asrwt>
<pdfrwt beam="1">  1        1 0.63710373E-03 0.80313700E+02</pdfrwt>
<pdfrwt beam="2">  1       -1 0.59907668E-01 0.80313700E+02</pdfrwt>
<totfact> 0.75173526E+04</totfact>
</mgrwt>
</event>
<event>
 4    1  0.1893769E-002  0.5492049E+02  0.7818608E-02  0.1420475E+00
          1   -1    0    0    0  501  0.00000000000E+00  0.00000000000E+00  0.13357246151E+02  0.13357247101E+02  0.50400000000E-02 0.  1.
         -1   -1    0    0  501    0 -0.00000000000E+00 -0.00000000000E+00 -0.56453637713E+02  0.56453637938E+02  0.50400000000E-02 0.  1.
          2    1    1    2    0  502  0.11206706251E+02  0.25066472813E+02 -0.21061095181E+02  0.34604740441E+02  0.25500000000E-02 0. -1.
         -2    1    1    2  502    0 -0.11206706251E+02 -0.25066472813E+02 -0.22035296382E+02  0.35206144598E+02  0.25500000000E-02 0. -1.
<mgrwt>
<rscale>  0 0.54920494E+02</rscale>
<asrwt>0</asrwt>
<pdfrwt beam="1">  1        1 0.20549611E-02 0.54920494E+02</pdfrwt>
<pdfrwt beam="2">  1       -1 0.86851750E-02 0.54920494E+02</pdfrwt>
<totfact> 0.31965321E+05</totfact>
</mgrwt>
</event>
<event>
 4    1  0.1893769E-002  0.4738597E+02  0.7818608E-02  0.1459973E+00
          1   -1    0    0    0  501  0.00000000000E+00  0.00000000000E+00  0.26514133103E+02  0.26514133582E+02  0.50400000000E-02 0. -1.
         -1   -1    0    0  501    0 -0.00000000000E+00 -0.00000000000E+00 -0.21172010068E+02  0.21172010668E+02  0.50400000000E-02 0. -1.
          2    1    1    2    0  502 -0.64280672732E+01  0.22752768458E+02  0.42134121093E+01  0.24015856626E+02  0.25500000000E-02 0. -1.
         -2    1    1    2  502    0  0.64280672732E+01 -0.22752768458E+02  0.11287109255E+01  0.23670287624E+02  0.25500000000E-02 0. -1.
<mgrwt>
<rscale>  0 0.47385969E+02</rscale>
<asrwt>0</asrwt>
<pdfrwt beam="1">  1        1 0.40790975E-02 0.47385969E+02</pdfrwt>
<pdfrwt beam="2">  1       -1 0.32572324E-02 0.47385969E+02</pdfrwt>
<totfact> 0.50515250E+05</totfact>
</mgrwt>
</event>
<event>
 4    1  0.1893769E-002  0.4547441E+02  0.7818608E-02  0.1471402E+00
          1   -1    0    0    0  501  0.00000000000E+00  0.00000000000E+00  0.19920735548E+03  0.19920735555E+03  0.50400000000E-02 0.  1.
         -1   -1    0    0  501    0 -0.00000000000E+00 -0.00000000000E+00 -0.25951857546E+01  0.25951906486E+01  0.50400000000E-02 0.  1.
          2    1    1    2    0  502 -0.17788079978E+02  0.13516408704E+02  0.79545778597E+02  0.82623483300E+02  0.25500000000E-02 0. -1.
         -2    1    1    2  502    0  0.17788079978E+02 -0.13516408704E+02  0.11706639113E+03  0.11917906290E+03  0.25500000000E-02 0. -1.
<mgrwt>
<rscale>  0 0.45474414E+02</rscale>
<asrwt>0</asrwt>
<pdfrwt beam="1">  1        1 0.30647290E-01 0.45474414E+02</pdfrwt>
<pdfrwt beam="2">  1       -1 0.39925968E-03 0.45474414E+02</pdfrwt>
<totfact> 0.71130543E+05</totfact>
</mgrwt>
</event>
<event>
 4    1  0.1893769E-002  0.6570841E+02  0.7818608E-02  0.1375326E+00
          1   -1    0    0    0  501  0.00000000000E+00  0.00000000000E+00  0.97615796266E+02  0.97615796396E+02  0.50400000000E-02 0. -1.
         -1   -1    0    0  501    0 -0.00000000000E+00 -0.00000000000E+00 -0.11057623840E+02  0.11057624989E+02  0.50400000000E-02 0. -1.
          2    1    1    2    0  502  0.21728390404E+02  0.20878055998E+02  0.21627695496E+02  0.37091419369E+02  0.25500000000E-02 0.  1.
         -2    1    1    2  502    0 -0.21728390404E+02 -0.20878055998E+02  0.64930476929E+02  0.71582002016E+02  0.25500000000E-02 0.  1.
<mgrwt>
<rscale>  0 0.65708411E+02</rscale>
<asrwt>0</asrwt>
<pdfrwt beam="1">  1        1 0.15017815E-01 0.65708411E+02</pdfrwt>
<pdfrwt beam="2">  1       -1 0.17011730E-02 0.65708411E+02</pdfrwt>
<totfact> 0.24943608E+05</totfact>
</mgrwt>
</event>
<event>
 4    1  0.1893769E-002  0.4509711E+02  0.7818608E-02  0.1473736E+00
          1   -1    0    0    0  501  0.00000000000E+00  0.00000000000E+00  0.18661388593E+03  0.18661388600E+03  0.50400000000E-02 0.  1.
         -1   -1    0    0  501    0 -0.00000000000E+00 -0.00000000000E+00 -0.27245392503E+01  0.27245439120E+01  0.50400000000E-02 0.  1.
          2    1    1    2    0  502 -0.17008543094E+01 -0.20145384296E+02  0.50021434974E+02  0.53952510388E+02  0.25500000000E-02 0.  1.
         -2    1    1    2  502    0  0.17008543094E+01  0.20145384296E+02  0.13386791171E+03  0.13538591953E+03  0.25500000000E-02 0.  1.
<mgrwt>
<rscale>  0 0.45097109E+02</rscale>
<asrwt>0</asrwt>
<pdfrwt beam="1">  1        1 0.28709833E-01 0.45097109E+02</pdfrwt>
<pdfrwt beam="2">  1       -1 0.41916019E-03 0.45097109E+02</pdfrwt>
<totfact> 0.71815685E+05</totfact>
</mgrwt>
</event>
<event>
 4    1  0.1893769E-002  0.7746405E+02  0.7818608E-02  0.1336406E+00
         -1   -1    0    0  501    0 -0.00000000000E+00  0.00000000000E+00  0.11656182041E+02  0.11656183131E+02  0.50400000000E-02 0. -1.
          1   -1    0    0    0  501  0.00000000000E+00 -0.00000000000E+00 -0.12870164944E+03  0.12870164954E+03  0.50400000000E-02 0. -1.
          2    1    1    2    0  502  0.14341391831E+02 -0.35951073035E+02 -0.55950869329E+02  0.68034219016E+02  0.25500000000E-02 0. -1.
         -2    1    1    2  502    0 -0.14341391831E+02  0.35951073035E+02 -0.61094598072E+02  0.72323613654E+02  0.25500000000E-02 0. -1.
<mgrwt>
<rscale>  0 0.77464055E+02</rscale>
<asrwt>0</asrwt>
<pdfrwt beam="2">  1        1 0.19800253E-01 0.77464055E+02</pdfrwt>
<pdfrwt beam="1">  1       -1 0.17932590E-02 0.77464055E+02</pdfrwt>
<totfact> 0.16881332E+05</totfact>
</mgrwt>
</event>
<event>
 4    1  0.1893769E-002  0.8842119E+02  0.7818608E-02  0.1306721E+00
          1   -1    0    0    0  501  0.00000000000E+00  0.00000000000E+00  0.54595645318E+03  0.54595645320E+03  0.50400000000E-02 0. -1.
         -1   -1    0    0  501    0 -0.00000000000E+00 -0.00000000000E+00 -0.35800941778E+01  0.35800977254E+01  0.50400000000E-02 0. -1.
          2    1    1    2    0  502  0.34055633516E+02  0.26068548444E+02  0.20447582577E+03  0.20892515101E+03  0.25500000000E-02 0. -1.
         -2    1    1    2  502    0 -0.34055633516E+02 -0.26068548444E+02  0.33790053323E+03  0.34061139992E+03  0.25500000000E-02 0. -1.
<mgrwt>
<rscale>  0 0.88421185E+02</rscale>
<asrwt>0</asrwt>
<pdfrwt beam="1">  1        1 0.83993247E-01 0.88421185E+02</pdfrwt>
<pdfrwt beam="2">  1       -1 0.55078435E-03 0.88421185E+02</pdfrwt>
<totfact> 0.15244482E+05</totfact>
</mgrwt>
</event>
<event>
 4    1  0.1893769E-002  0.7876617E+02  0.7818608E-02  0.1332590E+00
          1   -1    0    0    0  501  0.00000000000E+00  0.00000000000E+00  0.48893204023E+03  0.48893204026E+03  0.50400000000E-02 0.  1.
         -1   -1    0    0  501    0 -0.00000000000E+00 -0.00000000000E+00 -0.31722743353E+01  0.31722783389E+01  0.50400000000E-02 0.  1.
          2    1    1    2    0  502 -0.27773630154E+02 -0.17182157742E+02  0.10537080894E+03  0.11031594835E+03  0.25500000000E-02 0. -1.
         -2    1    1    2  502    0  0.27773630154E+02  0.17182157742E+02  0.38038895695E+03  0.38178837025E+03  0.25500000000E-02 0. -1.
<mgrwt>
<rscale>  0 0.78766174E+02</rscale>
<asrwt>0</asrwt>
<pdfrwt beam="1">  1        1 0.75220338E-01 0.78766174E+02</pdfrwt>
<pdfrwt beam="2">  1       -1 0.48804236E-03 0.78766174E+02</pdfrwt>
<totfact> 0.20409871E+05</totfact>
</mgrwt>
</event>
<event>
 4    1  0.1893769E-002  0.7653771E+02  0.7818608E-02  0.1339174E+00
          1   -1    0    0    0  501  0.00000000000E+00  0.00000000000E+00  0.10179668649E+04  0.10179668649E+04  0.50400000000E-02 0.  1.
         -1   -1    0    0  501    0 -0.00000000000E+00 -0.00000000000E+00 -0.14386528219E+01  0.14386616502E+01  0.50400000000E-02 0.  1.
          2    1    1    2    0  502  0.23481602729E+02 -0.29883579679E+02  0.44856379238E+03  0.45017095624E+03  0.25500000000E-02 0.  1.
         -2    1    1    2  502    0 -0.23481602729E+02  0.29883579679E+02  0.56796441972E+03  0.56923457034E+03  0.25500000000E-02 0.  1.
<mgrwt>
<rscale>  0 0.76537714E+02</rscale>
<asrwt>0</asrwt>
<pdfrwt beam="1">  1        1 0.15661001E+00 0.76537714E+02</pdfrwt>
<pdfrwt beam="2">  1       -1 0.22133228E-03 0.76537714E+02</pdfrwt>
<totfact> 0.21413634E+05</totfact>
</mgrwt>
</event>
<event>
 4    1  0.1893769E-002  0.4272666E+02  0.7818608E-02  0.1489054E+00
          1   -1    0    0    0  501  0.00000000000E+00  0.00000000000E+00  0.48847294170E+02  0.48847294430E+02  0.50400000000E-02 0.  1.
         -1   -1    0    0  501    0 -0.00000000000E+00 -0.00000000000E+00 -0.93432381325E+01  0.93432394919E+01  0.50400000000E-02 0.  1.
          2    1    1    2    0  502  0.18927338481E+02 -0.98312550745E+01  0.21416824656E+02  0.30225454557E+02  0.25500000000E-02 0. -1.
         -2    1    1    2  502    0 -0.18927338481E+02  0.98312550745E+01  0.18087231382E+02  0.27965079365E+02  0.25500000000E-02 0. -1.
<mgrwt>
<rscale>  0 0.42726664E+02</rscale>
<asrwt>0</asrwt>
<pdfrwt beam="1">  1        1 0.75149683E-02 0.42726664E+02</pdfrwt>
<pdfrwt beam="2">  1       -1 0.14374214E-02 0.42726664E+02</pdfrwt>
<totfact> 0.69213354E+05</totfact>
</mgrwt>
</event>
<event>
 4    1  0.1893769E-002  0.6273267E+02  0.7818608E-02  0.1386709E+00
         -1   -1    0    0  501    0 -0.00000000000E+00  0.00000000000E+00  0.52286902876E+00  0.52289331879E+00  0.50400000000E-02 0.  1.
          1   -1    0    0    0  501  0.00000000000E+00 -0.00000000000E+00 -0.18815882464E+04  0.18815882464E+04  0.50400000000E-02 0.  1.
          2    1    1    2    0  502 -0.27952494942E+02 -0.37059110164E+00 -0.13673304539E+04  0.13676161923E+04  0.25500000000E-02 0. -1.
         -2    1    1    2  502    0  0.27952494942E+02  0.37059110164E+00 -0.51373492346E+03  0.51449494740E+03  0.25500000000E-02 0. -1.
<mgrwt>
<rscale>  0 0.62732674E+02</rscale>
<asrwt>0</asrwt>
<pdfrwt beam="2">  1        1 0.28946970E+00 0.62732674E+02</pdfrwt>
<pdfrwt beam="1">  1       -1 0.80444764E-04 0.62732674E+02</pdfrwt>
<totfact> 0.23049968E+05</totfact>
</mgrwt>
</event>
<event>
 4    1  0.1893769E-002  0.9304436E+02  0.7818608E-02  0.1295642E+00
         -1   -1    0    0  501    0 -0.00000000000E+00  0.00000000000E+00  0.17860516817E+04  0.17860516817E+04  0.50400000000E-02 0. -1.
          1   -1    0    0    0  501  0.00000000000E+00 -0.00000000000E+00 -0.12117811624E+01  0.12117916434E+01  0.50400000000E-02 0. -1.
          2    1    1    2    0  502  0.17043700817E+02 -0.29188275789E+02  0.27838038964E+03  0.28042482865E+03  0.25500000000E-02 0. -1.
         -2    1    1    2  502    0 -0.17043700817E+02  0.29188275789E+02  0.15064595109E+04  0.15068386447E+04  0.25500000000E-02 0. -1.
<mgrwt>
<rscale>  0 0.93044358E+02</rscale>
<asrwt>0</asrwt>
<pdfrwt beam="2">  1        1 0.18642858E-03 0.93044358E+02</pdfrwt>
<pdfrwt beam="1">  1       -1 0.27477732E+00 0.93044358E+02</pdfrwt>
<totfact> 0.89395456E+03</totfact>
</mgrwt>
</event>
<event>
 4    1  0.1893769E-002  0.1129146E+03  0.7818608E-02  0.1255266E+00
          1   -1    0    0    0  501  0.00000000000E+00  0.00000000000E+00  0.10743877359E+03  0.10743877371E+03  0.50400000000E-02 0.  1.
         -1   -1    0    0  501    0 -0.00000000000E+00 -0.00000000000E+00 -0.29667380960E+02  0.29667381388E+02  0.50400000000E-02 0.  1.
          2    1    1    2    0  502 -0.19732975475E+02  0.40960427195E+02 -0.17558428324E+01  0.45499779205E+02  0.25500000000E-02 0.  1.
         -2    1    1    2  502    0  0.19732975475E+02 -0.40960427195E+02  0.79527235464E+02  0.91606375893E+02  0.25500000000E-02 0.  1.
<mgrwt>
<rscale>  0 0.11291461E+03</rscale>
<asrwt>0</asrwt>
<pdfrwt beam="1">  1        1 0.16529042E-01 0.11291461E+03</pdfrwt>
<pdfrwt beam="2">  1       -1 0.45642125E-02 0.11291461E+03</pdfrwt>
<totfact> 0.58588639E+04</totfact>
</mgrwt>
</event>
<event>
 4    1  0.1893769E-002  0.4885743E+02  0.7818608E-02  0.1451603E+00
          1   -1    0    0    0  501  0.00000000000E+00  0.00000000000E+00  0.11890818599E+04  0.11890818599E+04  0.50400000000E-02 0. -1.
         -1   -1    0    0  501    0 -0.00000000000E+00 -0.00000000000E+00 -0.50185531772E+00  0.50188062477E+00  0.50400000000E-02 0. -1.
          2    1    1    2    0  502  0.55906637267E+01  0.23757294422E+02  0.61979798456E+03  0.62027832965E+03  0.25500000000E-02 0.  1.
         -2    1    1    2  502    0 -0.55906637267E+01 -0.23757294422E+02  0.56878201997E+03  0.56930541084E+03  0.25500000000E-02 0.  1.
<mgrwt>
<rscale>  0 0.48857430E+02</rscale>
<asrwt>0</asrwt>
<pdfrwt beam="1">  1        1 0.18293355E+00 0.48857430E+02</pdfrwt>
<pdfrwt beam="2">  1       -1 0.77211353E-04 0.48857430E+02</pdfrwt>
<totfact> 0.63248695E+05</totfact>
</mgrwt>
</event>
<event>
 4    1  0.1893769E-002  0.9513371E+02  0.7818608E-02  0.1290875E+00
          1   -1    0    0    0  501  0.00000000000E+00  0.00000000000E+00  0.28131838026E+03  0.28131838030E+03  0.50400000000E-02 0.  1.
         -1   -1    0    0  501    0 -0.00000000000E+00 -0.00000000000E+00 -0.80428639301E+01  0.80428655092E+01  0.50400000000E-02 0.  1.
          2    1    1    2    0  502 -0.16049973027E+02  0.43907221747E+02  0.10991988803E+03  0.11944801190E+03  0.25500000000E-02 0. -1.
         -2    1    1    2  502    0  0.16049973027E+02 -0.43907221747E+02  0.16335562830E+03  0.16991323391E+03  0.25500000000E-02 0. -1.
<mgrwt>
<rscale>  0 0.95133710E+02</rscale>
<asrwt>0</asrwt>
<pdfrwt beam="1">  1        1 0.43279748E-01 0.95133710E+02</pdfrwt>
<pdfrwt beam="2">  1       -1 0.12373639E-02 0.95133710E+02</pdfrwt>
<totfact> 0.11295751E+05</totfact>
</mgrwt>
</event>
<event>
 4    1  0.1893769E-002  0.1619682E+03  0.7818608E-02  0.1186492E+00
         -1   -1    0    0  501    0 -0.00000000000E+00  0.00000000000E+00  0.40332734305E+02  0.40332734620E+02  0.50400000000E-02 0. -1.
          1   -1    0    0    0  501  0.00000000000E+00 -0.00000000000E+00 -0.16260801485E+03  0.16260801493E+03  0.50400000000E-02 0. -1.
          2    1    1    2    0  502  0.64238964559E+02  0.26664744040E+02 -0.11311344432E+03  0.13278668772E+03  0.25500000000E-02 0. -1.
         -2    1    1    2  502    0 -0.64238964559E+02 -0.26664744040E+02 -0.91618362279E+01  0.70154061835E+02  0.25500000000E-02 0. -1.
<mgrwt>
<rscale>  0 0.16196822E+03</rscale>
<asrwt>0</asrwt>
<pdfrwt beam="2">  1        1 0.25016617E-01 0.16196822E+03</pdfrwt>
<pdfrwt beam="1">  1       -1 0.62050361E-02 0.16196822E+03</pdfrwt>
<totfact> 0.22875743E+04</totfact>
</mgrwt>
</event>
<event>
 4    1  0.1893769E-002  0.4966231E+02  0.7818608E-02  0.1447171E+00
         -1   -1    0    0  501    0 -0.00000000000E+00  0.00000000000E+00  0.43989455007E+03  0.43989455009E+03  0.50400000000E-02 0.  1.
          1   -1    0    0    0  501  0.00000000000E+00 -0.00000000000E+00 -0.14016640407E+01  0.14016731019E+01  0.50400000000E-02 0.  1.
          2    1    1    2    0  502  0.10116107027E+02  0.21847217896E+02  0.27326082594E+03  0.27431936780E+03  0.25500000000E-02 0.  1.
         -2    1    1    2  502    0 -0.10116107027E+02 -0.21847217896E+02  0.16523206009E+03  0.16697685540E+03  0.25500000000E-02 0.  1.
<mgrwt>
<rscale>  0 0.49662315E+02</rscale>
<asrwt>0</asrwt>
<pdfrwt beam="2">  1        1 0.21564116E-03 0.49662315E+02</pdfrwt>
<pdfrwt beam="1">  1       -1 0.67676137E-01 0.49662315E+02</pdfrwt>
<totfact> 0.23895758E+05</totfact>
</mgrwt>
</event>
<event>
 4    1  0.1893769E-002  0.1201207E+03  0.7818608E-02  0.1242898E+00
          1   -1    0    0    0  501  0.00000000000E+00  0.00000000000E+00  0.22121685564E+03  0.22121685570E+03  0.50400000000E-02 0. -1.
         -1   -1    0    0  501    0 -0.00000000000E+00 -0.00000000000E+00 -0.16306375806E+02  0.16306376585E+02  0.50400000000E-02 0. -1.
          2    1    1    2    0  502  0.17452515804E+01  0.23706855508E+02 -0.66086611112E+01  0.24672561873E+02  0.25500000000E-02 0.  1.
         -2    1    1    2  502    0 -0.17452515804E+01 -0.23706855508E+02  0.21151914094E+03  0.21285067041E+03  0.25500000000E-02 0.  1.
<mgrwt>
<rscale>  0 0.12012069E+03</rscale>
<asrwt>0</asrwt>
<pdfrwt beam="1">  1        1 0.34033363E-01 0.12012069E+03</pdfrwt>
<pdfrwt beam="2">  1       -1 0.25086732E-02 0.12012069E+03</pdfrwt>
<totfact> 0.57052338E+04</totfact>
</mgrwt>
</event>
<event>
 4    1  0.1893769E-002  0.6705464E+02  0.7818608E-02  0.1370405E+00
          1   -1    0    0    0  501  0.00000000000E+00  0.00000000000E+00  0.14909749364E+03  0.14909749373E+03  0.50400000000E-02 0. -1.
         -1   -1    0    0  501    0 -0.00000000000E+00 -0.00000000000E+00 -0.75392348564E+01  0.75392365410E+01  0.50400000000E-02 0. -1.
          2    1    1    2    0  502  0.21494091769E+02 -0.40839069934E+01  0.11434479412E+02  0.24686465993E+02  0.25500000000E-02 0.  1.
         -2    1    1    2  502    0 -0.21494091769E+02  0.40839069934E+01  0.13012377938E+03  0.13195026428E+03  0.25500000000E-02 0.  1.
<mgrwt>
<rscale>  0 0.67054639E+02</rscale>
<asrwt>0</asrwt>
<pdfrwt beam="1">  1        1 0.22938074E-01 0.67054639E+02</pdfrwt>
<pdfrwt beam="2">  1       -1 0.11598825E-02 0.67054639E+02</pdfrwt>
<totfact> 0.25277618E+05</totfact>
</mgrwt>
</event>
<event>
 4    1  0.1893769E-002  0.4319920E+02  0.7818608E-02  0.1485907E+00
         -1   -1    0    0  501    0 -0.00000000000E+00  0.00000000000E+00  0.28067610594E+03  0.28067610598E+03  0.50400000000E-02 0.  1.
          1   -1    0    0    0  501  0.00000000000E+00 -0.00000000000E+00 -0.16622066110E+01  0.16622142519E+01  0.50400000000E-02 0.  1.
          2    1    1    2    0  502  0.19670291151E+02 -0.88918777010E+01  0.13462955037E+03  0.13634919025E+03  0.25500000000E-02 0. -1.
         -2    1    1    2  502    0 -0.19670291151E+02  0.88918777010E+01  0.14438434896E+03  0.14598912999E+03  0.25500000000E-02 0. -1.
<mgrwt>
<rscale>  0 0.43199202E+02</rscale>
<asrwt>0</asrwt>
<pdfrwt beam="2">  1        1 0.25572454E-03 0.43199202E+02</pdfrwt>
<pdfrwt beam="1">  1       -1 0.43180964E-01 0.43199202E+02</pdfrwt>
<totfact> 0.41205683E+05</totfact>
</mgrwt>
</event>
<event>
 4    1  0.1893769E-002  0.4677388E+02  0.7818608E-02  0.1463562E+00
          1   -1    0    0    0  501  0.00000000000E+00  0.00000000000E+00  0.47379970312E+01  0.47379997118E+01  0.50400000000E-02 0. -1.
         -1   -1    0    0  501    0 -0.00000000000E+00 -0.00000000000E+00 -0.11543880626E+03  0.11543880637E+03  0.50400000000E-02 0. -1.
          2    1    1    2    0  502  0.21709012571E+02  0.50404754827E+01 -0.37135202816E+02  0.43309478346E+02  0.25500000000E-02 0.  1.
         -2    1    1    2  502    0 -0.21709012571E+02 -0.50404754827E+01 -0.73565606417E+02  0.76867327740E+02  0.25500000000E-02 0.  1.
<mgrwt>
<rscale>  0 0.46773877E+02</rscale>
<asrwt>0</asrwt>
<pdfrwt beam="1">  1        1 0.72892292E-03 0.46773877E+02</pdfrwt>
<pdfrwt beam="2">  1       -1 0.17759815E-01 0.46773877E+02</pdfrwt>
<totfact> 0.42789409E+05</totfact>
</mgrwt>
</event>
<event>
 4    1  0.1893769E-002  0.1124941E+03  0.7818608E-02  0.1256020E+00
         -1   -1    0    0  501    0 -0.00000000000E+00  0.00000000000E+00  0.19309795555E+02  0.19309796213E+02  0.50400000000E-02 0.  1.
          1   -1    0    0    0  501  0.00000000000E+00 -0.00000000000E+00 -0.16384076523E+03  0.16384076531E+03  0.50400000000E-02 0.  1.
          2    1    1    2    0  502 -0.55573739391E+02  0.42664262972E+00 -0.86375420122E+02  0.10270995931E+03  0.25500000000E-02 0.  1.
         -2    1    1    2  502    0  0.55573739391E+02 -0.42664262972E+00 -0.58155549558E+02  0.80440602215E+02  0.25500000000E-02 0.  1.
<mgrwt>
<rscale>  0 0.11249412E+03</rscale>
<asrwt>0</asrwt>
<pdfrwt beam="2">  1        1 0.25206271E-01 0.11249412E+03</pdfrwt>
<pdfrwt beam="1">  1       -1 0.29707379E-02 0.11249412E+03</pdfrwt>
<totfact> 0.64269757E+04</totfact>
</mgrwt>
</event>
<event>
 4    1  0.1893769E-002  0.4301349E+02  0.7818608E-02  0.1487138E+00
          1   -1    0    0    0  501  0.00000000000E+00  0.00000000000E+00  0.46731233857E+01  0.46731261036E+01  0.50400000000E-02 0. -1.
         -1   -1    0    0  501    0 -0.00000000000E+00 -0.00000000000E+00 -0.98978736341E+02  0.98978736469E+02  0.50400000000E-02 0. -1.
          2    1    1    2    0  502  0.18249343783E+02 -0.10327239674E+02 -0.58671716776E+02  0.62306185758E+02  0.25500000000E-02 0. -1.
         -2    1    1    2  502    0 -0.18249343783E+02  0.10327239674E+02 -0.35633896179E+02  0.41345676814E+02  0.25500000000E-02 0. -1.
<mgrwt>
<rscale>  0 0.43013486E+02</rscale>
<asrwt>0</asrwt>
<pdfrwt beam="1">  1        1 0.71894235E-03 0.43013486E+02</pdfrwt>
<pdfrwt beam="2">  1       -1 0.15227497E-01 0.43013486E+02</pdfrwt>
<totfact> 0.53952133E+05</totfact>
</mgrwt>
</event>
<event>
 4    1  0.1893769E-002  0.4906522E+02  0.7818608E-02  0.1450450E+00
          1   -1    0    0    0  501  0.00000000000E+00  0.00000000000E+00  0.81925166714E+02  0.81925166869E+02  0.50400000000E-02 0.  1.
         -1   -1    0    0  501    0 -0.00000000000E+00 -0.00000000000E+00 -0.73463257010E+01  0.73463274298E+01  0.50400000000E-02 0.  1.
          2    1    1    2    0  502  0.50685085841E+01 -0.19587620593E+02  0.62532176155E+02  0.65723950893E+02  0.25500000000E-02 0. -1.
         -2    1    1    2  502    0 -0.50685085841E+01  0.19587620593E+02  0.12046664858E+02  0.23547543406E+02  0.25500000000E-02 0. -1.
<mgrwt>
<rscale>  0 0.49065224E+02</rscale>
<asrwt>0</asrwt>
<pdfrwt beam="1">  1        1 0.12603872E-01 0.49065224E+02</pdfrwt>
<pdfrwt beam="2">  1       -1 0.11302041E-02 0.49065224E+02</pdfrwt>
<totfact> 0.51624317E+05</totfact>
</mgrwt>
</event>
<event>
 4    1  0.1893769E-002  0.4588435E+02  0.7818608E-02  0.1468895E+00
          1   -1    0    0    0  501  0.00000000000E+00  0.00000000000E+00  0.34937897017E+02  0.34937897380E+02  0.50400000000E-02 0.  1.
         -1   -1    0    0  501    0 -0.00000000000E+00 -0.00000000000E+00 -0.15065112421E+02  0.15065113264E+02  0.50400000000E-02 0.  1.
          2    1    1    2    0  502  0.22745723135E+02 -0.26763867856E+01  0.84692949169E+01  0.24418434226E+02  0.25500000000E-02 0.  1.
         -2    1    1    2  502    0 -0.22745723135E+02  0.26763867856E+01  0.11403489679E+02  0.25584576418E+02  0.25500000000E-02 0.  1.
<mgrwt>
<rscale>  0 0.45884349E+02</rscale>
<asrwt>0</asrwt>
<pdfrwt beam="1">  1        1 0.53750611E-02 0.45884349E+02</pdfrwt>
<pdfrwt beam="2">  1       -1 0.23177097E-02 0.45884349E+02</pdfrwt>
<totfact> 0.56153219E+05</totfact>
</mgrwt>
</event>
<event>
 4    1  0.1893769E-002  0.4409193E+02  0.7818608E-02  0.1480091E+00
          1   -1    0    0    0  501  0.00000000000E+00  0.00000000000E+00  0.27072063389E+01  0.27072110303E+01  0.50400000000E-02 0.  1.
         -1   -1    0    0  501    0 -0.00000000000E+00 -0.00000000000E+00 -0.17952980299E+03  0.17952980306E+03  0.50400000000E-02 0.  1.
          2    1    1    2    0  502 -0.21462280447E+02 -0.23084049231E+01 -0.10692582155E+03  0.10908294796E+03  0.25500000000E-02 0. -1.
         -2    1    1    2  502    0  0.21462280447E+02  0.23084049231E+01 -0.69896775101E+02  0.73154066130E+02  0.25500000000E-02 0. -1.
<mgrwt>
<rscale>  0 0.44091934E+02</rscale>
<asrwt>0</asrwt>
<pdfrwt beam="1">  1        1 0.41649379E-03 0.44091934E+02</pdfrwt>
<pdfrwt beam="2">  1       -1 0.27619961E-01 0.44091934E+02</pdfrwt>
<totfact> 0.44959807E+05</totfact>
</mgrwt>
</event>
<event>
 4    1  0.1893769E-002  0.5197204E+02  0.7818608E-02  0.1434986E+00
         -1   -1    0    0  501    0 -0.00000000000E+00  0.00000000000E+00  0.41676212960E+00  0.41679260342E+00  0.50400000000E-02 0.  1.
          1   -1    0    0    0  501  0.00000000000E+00 -0.00000000000E+00 -0.16202249628E+04  0.16202249628E+04  0.50400000000E-02 0.  1.
          2    1    1    2    0  502 -0.32522756735E+00 -0.25922322656E+02 -0.86569035451E+03  0.86607843899E+03  0.25500000000E-02 0.  1.
         -2    1    1    2  502    0  0.32522756735E+00  0.25922322656E+02 -0.75411784614E+03  0.75456331641E+03  0.25500000000E-02 0.  1.
<mgrwt>
<rscale>  0 0.51972035E+02</rscale>
<asrwt>0</asrwt>
<pdfrwt beam="2">  1        1 0.24926034E+00 0.51972035E+02</pdfrwt>
<pdfrwt beam="1">  1       -1 0.64120893E-04 0.51972035E+02</pdfrwt>
<totfact> 0.43942577E+05</totfact>
</mgrwt>
</event>
<event>
 4    1  0.1893769E-002  0.1235136E+03  0.7818608E-02  0.1237411E+00
          1   -1    0    0    0  501  0.00000000000E+00  0.00000000000E+00  0.12062131183E+02  0.12062132236E+02  0.50400000000E-02 0.  1.
         -1   -1    0    0  501    0 -0.00000000000E+00 -0.00000000000E+00 -0.31618795697E+03  0.31618795701E+03  0.50400000000E-02 0.  1.
          2    1    1    2    0  502 -0.47827074189E+02  0.23248032555E+02 -0.23551338206E+03  0.24144244279E+03  0.25500000000E-02 0. -1.
         -2    1    1    2  502    0  0.47827074189E+02 -0.23248032555E+02 -0.68612443729E+02  0.86807646461E+02  0.25500000000E-02 0. -1.
<mgrwt>
<rscale>  0 0.12351357E+03</rscale>
<asrwt>0</asrwt>
<pdfrwt beam="1">  1        1 0.18557128E-02 0.12351357E+03</pdfrwt>
<pdfrwt beam="2">  1       -1 0.48644295E-01 0.12351357E+03</pdfrwt>
<totfact> 0.26598951E+04</totfact>
</mgrwt>
</event>
<event>
 4    1  0.1893769E-002  0.4316857E+02  0.7818608E-02  0.1486110E+00
          1   -1    0    0    0  501  0.00000000000E+00  0.00000000000E+00  0.38246504920E+03  0.38246504924E+03  0.50400000000E-02 0.  1.
         -1   -1    0    0  501    0 -0.00000000000E+00 -0.00000000000E+00 -0.12180967613E+01  0.12181071881E+01  0.50400000000E-02 0.  1.
          2    1    1    2    0  502 -0.20293142185E+01  0.20861421840E+02  0.23643292246E+03  0.23736015644E+03  0.25500000000E-02 0. -1.
         -2    1    1    2  502    0  0.20293142185E+01 -0.20861421840E+02  0.14481402998E+03  0.14632299998E+03  0.25500000000E-02 0. -1.
<mgrwt>
<rscale>  0 0.43168574E+02</rscale>
<asrwt>0</asrwt>
<pdfrwt beam="1">  1        1 0.58840716E-01 0.43168574E+02</pdfrwt>
<pdfrwt beam="2">  1       -1 0.18740050E-03 0.43168574E+02</pdfrwt>
<totfact> 0.90283420E+05</totfact>
</mgrwt>
</event>
<event>
 4    1  0.1893769E-002  0.6795534E+02  0.7818608E-02  0.1367187E+00
         -1   -1    0    0  501    0 -0.00000000000E+00  0.00000000000E+00  0.25165817293E+03  0.25165817298E+03  0.50400000000E-02 0. -1.
          1   -1    0    0    0  501  0.00000000000E+00 -0.00000000000E+00 -0.45874999023E+01  0.45875026709E+01  0.50400000000E-02 0. -1.
          2    1    1    2    0  502  0.21035749275E+02 -0.16785067000E+02  0.45320559191E+02  0.52708579128E+02  0.25500000000E-02 0.  1.
         -2    1    1    2  502    0 -0.21035749275E+02  0.16785067000E+02  0.20175011384E+03  0.20353709653E+03  0.25500000000E-02 0.  1.
<mgrwt>
<rscale>  0 0.67955344E+02</rscale>
<asrwt>0</asrwt>
<pdfrwt beam="2">  1        1 0.70576941E-03 0.67955344E+02</pdfrwt>
<pdfrwt beam="1">  1       -1 0.38716643E-01 0.67955344E+02</pdfrwt>
<totfact> 0.13807487E+05</totfact>
</mgrwt>
</event>
<event>
 4    1  0.1893769E-002  0.7909195E+02  0.7818608E-02  0.1331648E+00
         -1   -1    0    0  501    0 -0.00000000000E+00  0.00000000000E+00  0.38466804832E+01  0.38466837850E+01  0.50400000000E-02 0. -1.
          1   -1    0    0    0  501  0.00000000000E+00 -0.00000000000E+00 -0.40655401448E+03  0.40655401451E+03  0.50400000000E-02 0. -1.
          2    1    1    2    0  502 -0.19082633877E+02  0.30270527325E+02 -0.11399610400E+03  0.11948038950E+03  0.25500000000E-02 0. -1.
         -2    1    1    2  502    0  0.19082633877E+02 -0.30270527325E+02 -0.28871123000E+03  0.29092030880E+03  0.25500000000E-02 0. -1.
<mgrwt>
<rscale>  0 0.79091948E+02</rscale>
<asrwt>0</asrwt>
<pdfrwt beam="2">  1        1 0.62546738E-01 0.79091948E+02</pdfrwt>
<pdfrwt beam="1">  1       -1 0.59179757E-03 0.79091948E+02</pdfrwt>
<totfact> 0.19673121E+05</totfact>
</mgrwt>
</event>
<event>
 4    1  0.1893769E-002  0.6838768E+02  0.7818608E-02  0.1365663E+00
          1   -1    0    0    0  501  0.00000000000E+00  0.00000000000E+00  0.10004751396E+04  0.10004751396E+04  0.50400000000E-02 0. -1.
         -1   -1    0    0  501    0 -0.00000000000E+00 -0.00000000000E+00 -0.11686579071E+01  0.11686687749E+01  0.50400000000E-02 0. -1.
          2    1    1    2    0  502 -0.19912130936E+02 -0.21937062829E+02  0.74971540356E+03  0.75030054913E+03  0.25500000000E-02 0. -1.
         -2    1    1    2  502    0  0.19912130936E+02  0.21937062829E+02  0.24959107816E+03  0.25134325928E+03  0.25500000000E-02 0. -1.
<mgrwt>
<rscale>  0 0.68387678E+02</rscale>
<asrwt>0</asrwt>
<pdfrwt beam="1">  1        1 0.15391958E+00 0.68387678E+02</pdfrwt>
<pdfrwt beam="2">  1       -1 0.17979398E-03 0.68387678E+02</pdfrwt>
<totfact> 0.28778880E+05</totfact>
</mgrwt>
</event>
<event>
 4    1  0.1893769E-002  0.4344099E+02  0.7818608E-02  0.1484316E+00
         -1   -1    0    0  501    0 -0.00000000000E+00  0.00000000000E+00  0.25703017616E+03  0.25703017621E+03  0.50400000000E-02 0. -1.
          1   -1    0    0    0  501  0.00000000000E+00 -0.00000000000E+00 -0.18355003238E+01  0.18355072433E+01  0.50400000000E-02 0. -1.
          2    1    1    2    0  502  0.20863770086E+02 -0.53926200532E+01  0.11138419063E+03  0.11344961517E+03  0.25500000000E-02 0. -1.
         -2    1    1    2  502    0 -0.20863770086E+02  0.53926200532E+01  0.14381048521E+03  0.14541606828E+03  0.25500000000E-02 0. -1.
<mgrwt>
<rscale>  0 0.43440989E+02</rscale>
<asrwt>0</asrwt>
<pdfrwt beam="2">  1        1 0.28238511E-03 0.43440989E+02</pdfrwt>
<pdfrwt beam="1">  1       -1 0.39543118E-01 0.43440989E+02</pdfrwt>
<totfact> 0.41937478E+05</totfact>
</mgrwt>
</event>
<event>
 4    1  0.1893769E-002  0.4965018E+03  0.7818608E-02  0.1014696E+00
          1   -1    0    0    0  501  0.00000000000E+00  0.00000000000E+00  0.64314230803E+03  0.64314230805E+03  0.50400000000E-02 0.  1.
         -1   -1    0    0  501    0 -0.00000000000E+00 -0.00000000000E+00 -0.95824054229E+02  0.95824054362E+02  0.50400000000E-02 0.  1.
          2    1    1    2    0  502  0.16195556005E+03  0.50019122021E+02  0.54360825426E+03  0.56942203163E+03  0.25500000000E-02 0. -1.
         -2    1    1    2  502    0 -0.16195556005E+03 -0.50019122021E+02  0.37099995457E+01  0.16954433079E+03  0.25500000000E-02 0. -1.
<mgrwt>
<rscale>  0 0.49650178E+03</rscale>
<asrwt>0</asrwt>
<pdfrwt beam="1">  1        1 0.98944968E-01 0.49650178E+03</pdfrwt>
<pdfrwt beam="2">  1       -1 0.14742163E-01 0.49650178E+03</pdfrwt>
<totfact> 0.10530067E+03</totfact>
</mgrwt>
</event>
<event>
 4    1  0.1893769E-002  0.4082597E+02  0.7818608E-02  0.1502220E+00
         -1   -1    0    0  501    0 -0.00000000000E+00  0.00000000000E+00  0.63289166103E+00  0.63291172860E+00  0.50400000000E-02 0.  1.
          1   -1    0    0    0  501  0.00000000000E+00 -0.00000000000E+00 -0.65838016303E+03  0.65838016305E+03  0.50400000000E-02 0.  1.
          2    1    1    2    0  502  0.18394466176E+02  0.86758017067E+01 -0.35712909301E+03  0.35770772287E+03  0.25500000000E-02 0. -1.
         -2    1    1    2  502    0 -0.18394466176E+02 -0.86758017067E+01 -0.30061817836E+03  0.30130535191E+03  0.25500000000E-02 0. -1.
<mgrwt>
<rscale>  0 0.40825969E+02</rscale>
<asrwt>0</asrwt>
<pdfrwt beam="2">  1        1 0.10128871E+00 0.40825969E+02</pdfrwt>
<pdfrwt beam="1">  1       -1 0.97370020E-04 0.40825969E+02</pdfrwt>
<totfact> 0.10903234E+06</totfact>
</mgrwt>
</event>
<event>
 4    1  0.1893769E-002  0.5642570E+02  0.7818608E-02  0.1413474E+00
         -1   -1    0    0  501    0 -0.00000000000E+00  0.00000000000E+00  0.31922807184E+03  0.31922807188E+03  0.50400000000E-02 0. -1.
          1   -1    0    0    0  501  0.00000000000E+00 -0.00000000000E+00 -0.24934025226E+01  0.24934076163E+01  0.50400000000E-02 0. -1.
          2    1    1    2    0  502 -0.23884195216E+02  0.23168549624E+01  0.73770356085E+02  0.77575047802E+02  0.25500000000E-02 0.  1.
         -2    1    1    2  502    0  0.23884195216E+02 -0.23168549624E+01  0.24296431323E+03  0.24414643169E+03  0.25500000000E-02 0.  1.
<mgrwt>
<rscale>  0 0.56425700E+02</rscale>
<asrwt>0</asrwt>
<pdfrwt beam="2">  1        1 0.38360085E-03 0.56425700E+02</pdfrwt>
<pdfrwt beam="1">  1       -1 0.49112003E-01 0.56425700E+02</pdfrwt>
<totfact> 0.20238401E+05</totfact>
</mgrwt>
</event>
<event>
 4    1  0.1893769E-002  0.5571995E+02  0.7818608E-02  0.1416725E+00
          1   -1    0    0    0  501  0.00000000000E+00  0.00000000000E+00  0.10657764386E+03  0.10657764398E+03  0.50400000000E-02 0.  1.
         -1   -1    0    0  501    0 -0.00000000000E+00 -0.00000000000E+00 -0.72827484659E+01  0.72827502098E+01  0.50400000000E-02 0.  1.
          2    1    1    2    0  502  0.14037969569E+02  0.17328601808E+02  0.83769427287E+02  0.86687150056E+02  0.25500000000E-02 0.  1.
         -2    1    1    2  502    0 -0.14037969569E+02 -0.17328601808E+02  0.15525468105E+02  0.27173244132E+02  0.25500000000E-02 0.  1.
<mgrwt>
<rscale>  0 0.55719953E+02</rscale>
<asrwt>0</asrwt>
<pdfrwt beam="1">  1        1 0.16396560E-01 0.55719953E+02</pdfrwt>
<pdfrwt beam="2">  1       -1 0.11204231E-02 0.55719953E+02</pdfrwt>
<totfact> 0.38681455E+05</totfact>
</mgrwt>
</event>
<event>
 4    1  0.1893769E-002  0.4343010E+02  0.7818608E-02  0.1484387E+00
          1   -1    0    0    0  501  0.00000000000E+00  0.00000000000E+00  0.77874767433E+03  0.77874767434E+03  0.50400000000E-02 0. -1.
         -1   -1    0    0  501    0 -0.00000000000E+00 -0.00000000000E+00 -0.60550437137E+00  0.60552534658E+00  0.50400000000E-02 0. -1.
          2    1    1    2    0  502  0.36706187685E+01 -0.20446133144E+02  0.50260140848E+03  0.50303050963E+03  0.25500000000E-02 0.  1.
         -2    1    1    2  502    0 -0.36706187685E+01  0.20446133144E+02  0.27554076148E+03  0.27632269006E+03  0.25500000000E-02 0.  1.
<mgrwt>
<rscale>  0 0.43430096E+02</rscale>
<asrwt>0</asrwt>
<pdfrwt beam="1">  1        1 0.11980690E+00 0.43430096E+02</pdfrwt>
<pdfrwt beam="2">  1       -1 0.93156471E-04 0.43430096E+02</pdfrwt>
<totfact> 0.93406906E+05</totfact>
</mgrwt>
</event>
<event>
 4    1  0.1893769E-002  0.7112872E+02  0.7818608E-02  0.1356296E+00
          1   -1    0    0    0  501  0.00000000000E+00  0.00000000000E+00  0.66193268663E+02  0.66193268855E+02  0.50400000000E-02 0.  1.
         -1   -1    0    0  501    0 -0.00000000000E+00 -0.00000000000E+00 -0.19108038133E+02  0.19108038797E+02  0.50400000000E-02 0.  1.
          2    1    1    2    0  502 -0.22711898061E+02 -0.26661237109E+02  0.16133246449E+02  0.38560777031E+02  0.25500000000E-02 0. -1.
         -2    1    1    2  502    0  0.22711898061E+02  0.26661237109E+02  0.30951984082E+02  0.46740530622E+02  0.25500000000E-02 0. -1.
<mgrwt>
<rscale>  0 0.71128715E+02</rscale>
<asrwt>0</asrwt>
<pdfrwt beam="1">  1        1 0.10183580E-01 0.71128715E+02</pdfrwt>
<pdfrwt beam="2">  1       -1 0.29396982E-02 0.71128715E+02</pdfrwt>
<totfact> 0.19188285E+05</totfact>
</mgrwt>
</event>
<event>
 4    1  0.1893769E-002  0.5017627E+02  0.7818608E-02  0.1444393E+00
         -1   -1    0    0  501    0 -0.00000000000E+00  0.00000000000E+00  0.18937617919E+02  0.18937618590E+02  0.50400000000E-02 0.  1.
          1   -1    0    0    0  501  0.00000000000E+00 -0.00000000000E+00 -0.33236196265E+02  0.33236196647E+02  0.50400000000E-02 0.  1.
          2    1    1    2    0  502 -0.20757448113E+02 -0.14081978776E+02 -0.66392215059E+01  0.25947120209E+02  0.25500000000E-02 0.  1.
         -2    1    1    2  502    0  0.20757448113E+02  0.14081978776E+02 -0.76593568399E+01  0.26226695029E+02  0.25500000000E-02 0.  1.
<mgrwt>
<rscale>  0 0.50176266E+02</rscale>
<asrwt>0</asrwt>
<pdfrwt beam="2">  1        1 0.51132610E-02 0.50176266E+02</pdfrwt>
<pdfrwt beam="1">  1       -1 0.29134798E-02 0.50176266E+02</pdfrwt>
<totfact> 0.44465181E+05</totfact>
</mgrwt>
</event>
<event>
 4    1  0.1893769E-002  0.4408042E+02  0.7818608E-02  0.1480165E+00
         -1   -1    0    0  501    0 -0.00000000000E+00  0.00000000000E+00  0.52435832929E+03  0.52435832932E+03  0.50400000000E-02 0.  1.
          1   -1    0    0    0  501  0.00000000000E+00 -0.00000000000E+00 -0.92640311833E+00  0.92641682803E+00  0.50400000000E-02 0.  1.
          2    1    1    2    0  502 -0.21453694360E+02 -0.42104555446E+01  0.29495823076E+03  0.29576738637E+03  0.25500000000E-02 0.  1.
         -2    1    1    2  502    0  0.21453694360E+02  0.42104555446E+01  0.22847369541E+03  0.22951735977E+03  0.25500000000E-02 0.  1.
<mgrwt>
<rscale>  0 0.44080417E+02</rscale>
<asrwt>0</asrwt>
<pdfrwt beam="2">  1        1 0.14252439E-03 0.44080417E+02</pdfrwt>
<pdfrwt beam="1">  1       -1 0.80670640E-01 0.44080417E+02</pdfrwt>
<totfact> 0.28861481E+05</totfact>
</mgrwt>
</event>
<event>
 4    1  0.1893769E-002  0.4207113E+02  0.7818608E-02  0.1493501E+00
         -1   -1    0    0  501    0 -0.00000000000E+00  0.00000000000E+00  0.34152785088E+01  0.34152822276E+01  0.50400000000E-02 0.  1.
          1   -1    0    0    0  501  0.00000000000E+00 -0.00000000000E+00 -0.12956328539E+03  0.12956328549E+03  0.50400000000E-02 0.  1.
          2    1    1    2    0  502 -0.10285051253E+02 -0.18335975153E+02 -0.65319480857E+02  0.68619420356E+02  0.25500000000E-02 0. -1.
         -2    1    1    2  502    0  0.10285051253E+02  0.18335975153E+02 -0.60828526025E+02  0.64359147360E+02  0.25500000000E-02 0. -1.
<mgrwt>
<rscale>  0 0.42071128E+02</rscale>
<asrwt>0</asrwt>
<pdfrwt beam="2">  1        1 0.19932810E-01 0.42071128E+02</pdfrwt>
<pdfrwt beam="1">  1       -1 0.52542786E-03 0.42071128E+02</pdfrwt>
<totfact> 0.80510031E+05</totfact>
</mgrwt>
</event>
<event>
 4    1  0.1893769E-002  0.6031530E+02  0.7818608E-02  0.1396513E+00
         -1   -1    0    0  501    0 -0.00000000000E+00  0.00000000000E+00  0.20196214525E+02  0.20196215154E+02  0.50400000000E-02 0.  1.
          1   -1    0    0    0  501  0.00000000000E+00 -0.00000000000E+00 -0.45032395814E+02  0.45032396096E+02  0.50400000000E-02 0.  1.
          2    1    1    2    0  502 -0.19694191086E+02  0.17822478735E+02  0.30275732332E+01  0.26733277333E+02  0.25500000000E-02 0.  1.
         -2    1    1    2  502    0  0.19694191086E+02 -0.17822478735E+02 -0.27863754522E+02  0.38495333916E+02  0.25500000000E-02 0.  1.
<mgrwt>
<rscale>  0 0.60315303E+02</rscale>
<asrwt>0</asrwt>
<pdfrwt beam="2">  1        1 0.69280610E-02 0.60315303E+02</pdfrwt>
<pdfrwt beam="1">  1       -1 0.31071100E-02 0.60315303E+02</pdfrwt>
<totfact> 0.28364324E+05</totfact>
</mgrwt>
</event>
<event>
 4    1  0.1893769E-002  0.7703857E+02  0.7818608E-02  0.1337672E+00
         -1   -1    0    0  501    0 -0.00000000000E+00  0.00000000000E+00  0.10161656512E+01  0.10161781499E+01  0.50400000000E-02 0. -1.
          1   -1    0    0    0  501  0.00000000000E+00 -0.00000000000E+00 -0.14601223360E+04  0.14601223361E+04  0.50400000000E-02 0. -1.
          2    1    1    2    0  502 -0.34640503068E+02  0.16790044291E+02 -0.75545622056E+03  0.75643636297E+03  0.25500000000E-02 0. -1.
         -2    1    1    2  502    0  0.34640503068E+02 -0.16790044291E+02 -0.70364994983E+03  0.70470215123E+03  0.25500000000E-02 0. -1.
<mgrwt>
<rscale>  0 0.77038570E+02</rscale>
<asrwt>0</asrwt>
<pdfrwt beam="2">  1        1 0.22463253E+00 0.77038570E+02</pdfrwt>
<pdfrwt beam="1">  1       -1 0.15633531E-03 0.77038570E+02</pdfrwt>
<totfact> 0.17574216E+05</totfact>
</mgrwt>
</event>
<event>
 4    1  0.1893769E-002  0.4374001E+02  0.7818608E-02  0.1482364E+00
          1   -1    0    0    0  501  0.00000000000E+00  0.00000000000E+00  0.95141019773E+01  0.95141033122E+01  0.50400000000E-02 0.  1.
         -1   -1    0    0  501    0 -0.00000000000E+00 -0.00000000000E+00 -0.50272445158E+02  0.50272445411E+02  0.50400000000E-02 0.  1.
          2    1    1    2    0  502 -0.19416171749E+02 -0.10046327184E+02 -0.19535699939E+02  0.29318253596E+02  0.25500000000E-02 0. -1.
         -2    1    1    2  502    0  0.19416171749E+02  0.10046327184E+02 -0.21222643241E+02  0.30468295127E+02  0.25500000000E-02 0. -1.
<mgrwt>
<rscale>  0 0.43740015E+02</rscale>
<asrwt>0</asrwt>
<pdfrwt beam="1">  1        1 0.14637081E-02 0.43740015E+02</pdfrwt>
<pdfrwt beam="2">  1       -1 0.77342223E-02 0.43740015E+02</pdfrwt>
<totfact> 0.56640768E+05</totfact>
</mgrwt>
</event>
<event>
 4    1  0.1893769E-002  0.4478584E+02  0.7818608E-02  0.1475683E+00
         -1   -1    0    0  501    0 -0.00000000000E+00  0.00000000000E+00  0.20480055522E+03  0.20480055528E+03  0.50400000000E-02 0. -1.
          1   -1    0    0    0  501  0.00000000000E+00 -0.00000000000E+00 -0.24484416791E+01  0.24484468664E+01  0.50400000000E-02 0. -1.
          2    1    1    2    0  502  0.10866975874E+00 -0.22142359180E+02  0.85726063030E+02  0.88539560471E+02  0.25500000000E-02 0.  1.
         -2    1    1    2  502    0 -0.10866975874E+00  0.22142359180E+02  0.11662605051E+03  0.11870944168E+03  0.25500000000E-02 0.  1.
<mgrwt>
<rscale>  0 0.44785835E+02</rscale>
<asrwt>0</asrwt>
<pdfrwt beam="2">  1        1 0.37668372E-03 0.44785835E+02</pdfrwt>
<pdfrwt beam="1">  1       -1 0.31507780E-01 0.44785835E+02</pdfrwt>
<totfact> 0.41770352E+05</totfact>
</mgrwt>
</event>
<event>
 4    1  0.1893769E-002  0.5488255E+02  0.7818608E-02  0.1420655E+00
         -1   -1    0    0  501    0 -0.00000000000E+00  0.00000000000E+00  0.97672963893E+02  0.97672964023E+02  0.50400000000E-02 0.  1.
          1   -1    0    0    0  501  0.00000000000E+00 -0.00000000000E+00 -0.77096399198E+01  0.77096415672E+01  0.50400000000E-02 0.  1.
          2    1    1    2    0  502  0.26535507932E+02 -0.51015434404E+01  0.54163210478E+02  0.60529433356E+02  0.25500000000E-02 0. -1.
         -2    1    1    2  502    0 -0.26535507932E+02  0.51015434404E+01  0.35800113496E+02  0.44853172235E+02  0.25500000000E-02 0. -1.
<mgrwt>
<rscale>  0 0.54882546E+02</rscale>
<asrwt>0</asrwt>
<pdfrwt beam="2">  1        1 0.11860986E-02 0.54882546E+02</pdfrwt>
<pdfrwt beam="1">  1       -1 0.15026609E-01 0.54882546E+02</pdfrwt>
<totfact> 0.29646460E+05</totfact>
</mgrwt>
</event>
<event>
 4    1  0.1893769E-002  0.6594808E+02  0.7818608E-02  0.1374440E+00
         -1   -1    0    0  501    0 -0.00000000000E+00  0.00000000000E+00  0.13852086607E+03  0.13852086616E+03  0.50400000000E-02 0. -1.
          1   -1    0    0    0  501  0.00000000000E+00 -0.00000000000E+00 -0.78492655806E+01  0.78492671987E+01  0.50400000000E-02 0. -1.
          2    1    1    2    0  502  0.86994495036E+01  0.24530983271E+02  0.11026785183E+03  0.11329805257E+03  0.25500000000E-02 0. -1.
         -2    1    1    2  502    0 -0.86994495036E+01 -0.24530983271E+02  0.20403748651E+02  0.33072080785E+02  0.25500000000E-02 0. -1.
<mgrwt>
<rscale>  0 0.65948076E+02</rscale>
<asrwt>0</asrwt>
<pdfrwt beam="2">  1        1 0.12075794E-02 0.65948076E+02</pdfrwt>
<pdfrwt beam="1">  1       -1 0.21310904E-01 0.65948076E+02</pdfrwt>
<totfact> 0.17491026E+05</totfact>
</mgrwt>
</event>
<event>
 4    1  0.1893769E-002  0.5677367E+02  0.7818608E-02  0.1411893E+00
          1   -1    0    0    0  501  0.00000000000E+00  0.00000000000E+00  0.41773622951E+01  0.41773653355E+01  0.50400000000E-02 0. -1.
         -1   -1    0    0  501    0 -0.00000000000E+00 -0.00000000000E+00 -0.19289974863E+03  0.19289974870E+03  0.50400000000E-02 0. -1.
          2    1    1    2    0  502  0.37527846378E+01  0.24911879048E+02 -0.13977092067E+03  0.14202322128E+03  0.25500000000E-02 0.  1.
         -2    1    1    2  502    0 -0.37527846378E+01 -0.24911879048E+02 -0.48951465664E+02  0.55053892754E+02  0.25500000000E-02 0.  1.
<mgrwt>
<rscale>  0 0.56773671E+02</rscale>
<asrwt>0</asrwt>
<pdfrwt beam="1">  1        1 0.64267151E-03 0.56773671E+02</pdfrwt>
<pdfrwt beam="2">  1       -1 0.29676878E-01 0.56773671E+02</pdfrwt>
<totfact> 0.23582639E+05</totfact>
</mgrwt>
</event>
<event>
 4    1  0.1893769E-002  0.4979007E+02  0.7818608E-02  0.1446477E+00
          1   -1    0    0    0  501  0.00000000000E+00  0.00000000000E+00  0.14600732271E+03  0.14600732280E+03  0.50400000000E-02 0. -1.
         -1   -1    0    0  501    0 -0.00000000000E+00 -0.00000000000E+00 -0.42447367221E+01  0.42447397143E+01  0.50400000000E-02 0. -1.
          2    1    1    2    0  502 -0.47484646414E+01 -0.23416740782E+02  0.91977490678E+02  0.95030260777E+02  0.25500000000E-02 0.  1.
         -2    1    1    2  502    0  0.47484646414E+01  0.23416740782E+02  0.49785095310E+02  0.55221801735E+02  0.25500000000E-02 0.  1.
<mgrwt>
<rscale>  0 0.49790074E+02</rscale>
<asrwt>0</asrwt>
<pdfrwt beam="1">  1        1 0.22462665E-01 0.49790074E+02</pdfrwt>
<pdfrwt beam="2">  1       -1 0.65303665E-03 0.49790074E+02</pdfrwt>
<totfact> 0.53920909E+05</totfact>
</mgrwt>
</event>
<event>
 4    1  0.1893769E-002  0.2577298E+03  0.7818608E-02  0.1108515E+00
          1   -1    0    0    0  501  0.00000000000E+00  0.00000000000E+00  0.27569548515E+02  0.27569548976E+02  0.50400000000E-02 0.  1.
         -1   -1    0    0  501    0 -0.00000000000E+00 -0.00000000000E+00 -0.60233711212E+03  0.60233711214E+03  0.50400000000E-02 0.  1.
          2    1    1    2    0  502 -0.12333420792E+03 -0.17542532389E+02 -0.20680042894E+03  0.24142386937E+03  0.25500000000E-02 0. -1.
         -2    1    1    2  502    0  0.12333420792E+03  0.17542532389E+02 -0.36796713466E+03  0.38848279175E+03  0.25500000000E-02 0. -1.
<mgrwt>
<rscale>  0 0.25772980E+03</rscale>
<asrwt>0</asrwt>
<pdfrwt beam="1">  1        1 0.42414695E-02 0.25772980E+03</pdfrwt>
<pdfrwt beam="2">  1       -1 0.92667238E-01 0.25772980E+03</pdfrwt>
<totfact> 0.24881226E+03</totfact>
</mgrwt>
</event>
<event>
 4    1  0.1893769E-002  0.4549523E+02  0.7818608E-02  0.1471273E+00
         -1   -1    0    0  501    0 -0.00000000000E+00  0.00000000000E+00  0.55438249400E+02  0.55438249629E+02  0.50400000000E-02 0. -1.
          1   -1    0    0    0  501  0.00000000000E+00 -0.00000000000E+00 -0.93338798703E+01  0.93338812310E+01  0.50400000000E-02 0. -1.
          2    1    1    2    0  502  0.27511372048E+00  0.20299771783E+02  0.37661555539E+02  0.42784917835E+02  0.25500000000E-02 0.  1.
         -2    1    1    2  502    0 -0.27511372048E+00 -0.20299771783E+02  0.84428139903E+01  0.21987213025E+02  0.25500000000E-02 0.  1.
<mgrwt>
<rscale>  0 0.45495231E+02</rscale>
<asrwt>0</asrwt>
<pdfrwt beam="2">  1        1 0.14359816E-02 0.45495231E+02</pdfrwt>
<pdfrwt beam="1">  1       -1 0.85289617E-02 0.45495231E+02</pdfrwt>
<totfact> 0.50908524E+05</totfact>
</mgrwt>
</event>
<event>
 4    1  0.1893769E-002  0.1123972E+03  0.7818608E-02  0.1256194E+00
          1   -1    0    0    0  501  0.00000000000E+00  0.00000000000E+00  0.43699678542E+03  0.43699678545E+03  0.50400000000E-02 0.  1.
         -1   -1    0    0  501    0 -0.00000000000E+00 -0.00000000000E+00 -0.72272414038E+01  0.72272431612E+01  0.50400000000E-02 0.  1.
          2    1    1    2    0  502  0.34887806827E+02 -0.37511800444E+02  0.12355505081E+03  0.13375404601E+03  0.25500000000E-02 0.  1.
         -2    1    1    2  502    0 -0.34887806827E+02  0.37511800444E+02  0.30621449321E+03  0.31046998260E+03  0.25500000000E-02 0.  1.
<mgrwt>
<rscale>  0 0.11239718E+03</rscale>
<asrwt>0</asrwt>
<pdfrwt beam="1">  1        1 0.67230289E-01 0.11239718E+03</pdfrwt>
<pdfrwt beam="2">  1       -1 0.11118832E-02 0.11239718E+03</pdfrwt>
<totfact> 0.78046251E+04</totfact>
</mgrwt>
</event>
<event>
 4    1  0.1893769E-002  0.5282975E+02  0.7818608E-02  0.1430650E+00
         -1   -1    0    0  501    0 -0.00000000000E+00  0.00000000000E+00  0.48301394137E+02  0.48301394400E+02  0.50400000000E-02 0.  1.
          1   -1    0    0    0  501  0.00000000000E+00 -0.00000000000E+00 -0.14445659589E+02  0.14445660468E+02  0.50400000000E-02 0.  1.
          2    1    1    2    0  502  0.20366995414E+01 -0.23663039907E+02  0.31965508878E+01  0.23964672890E+02  0.25500000000E-02 0.  1.
         -2    1    1    2  502    0 -0.20366995414E+01  0.23663039907E+02  0.30659183660E+02  0.38782381978E+02  0.25500000000E-02 0.  1.
<mgrwt>
<rscale>  0 0.52829747E+02</rscale>
<asrwt>0</asrwt>
<pdfrwt beam="2">  1        1 0.22224093E-02 0.52829747E+02</pdfrwt>
<pdfrwt beam="1">  1       -1 0.74309837E-02 0.52829747E+02</pdfrwt>
<totfact> 0.35827742E+05</totfact>
</mgrwt>
</event>
<event>
 4    1  0.1893769E-002  0.5373425E+02  0.7818608E-02  0.1426181E+00
          1   -1    0    0    0  501  0.00000000000E+00  0.00000000000E+00  0.67009512181E+03  0.67009512183E+03  0.50400000000E-02 0. -1.
         -1   -1    0    0  501    0 -0.00000000000E+00 -0.00000000000E+00 -0.10772177383E+01  0.10772295286E+01  0.50400000000E-02 0. -1.
          2    1    1    2    0  502  0.18051805549E+02  0.16762476901E+02  0.20056581379E+03  0.20207299172E+03  0.25500000000E-02 0. -1.
         -2    1    1    2  502    0 -0.18051805549E+02 -0.16762476901E+02  0.46845209029E+03  0.46909935964E+03  0.25500000000E-02 0. -1.
<mgrwt>
<rscale>  0 0.53734247E+02</rscale>
<asrwt>0</asrwt>
<pdfrwt beam="1">  1        1 0.10309153E+00 0.53734247E+02</pdfrwt>
<pdfrwt beam="2">  1       -1 0.16572675E-03 0.53734247E+02</pdfrwt>
<totfact> 0.55465979E+05</totfact>
</mgrwt>
</event>
<event>
 4    1  0.1893769E-002  0.5461789E+02  0.7818608E-02  0.1421915E+00
         -1   -1    0    0  501    0 -0.00000000000E+00  0.00000000000E+00  0.35709563221E+01  0.35709598788E+01  0.50400000000E-02 0.  1.
          1   -1    0    0    0  501  0.00000000000E+00 -0.00000000000E+00 -0.20884550293E+03  0.20884550299E+03  0.50400000000E-02 0.  1.
          2    1    1    2    0  502  0.34344048204E+01  0.27051733322E+02 -0.10838890386E+03  0.11176647932E+03  0.25500000000E-02 0. -1.
         -2    1    1    2  502    0 -0.34344048204E+01 -0.27051733322E+02 -0.96885642745E+02  0.10064998355E+03  0.25500000000E-02 0. -1.
<mgrwt>
<rscale>  0 0.54617893E+02</rscale>
<asrwt>0</asrwt>
<pdfrwt beam="2">  1        1 0.32130068E-01 0.54617893E+02</pdfrwt>
<pdfrwt beam="1">  1       -1 0.54937834E-03 0.54617893E+02</pdfrwt>
<totfact> 0.45343933E+05</totfact>
</mgrwt>
</event>
<event>
 4    1  0.1893769E-002  0.7648393E+02  0.7818608E-02  0.1339336E+00
          1   -1    0    0    0  501  0.00000000000E+00  0.00000000000E+00  0.10887453686E+04  0.10887453686E+04  0.50400000000E-02 0. -1.
         -1   -1    0    0  501    0 -0.00000000000E+00 -0.00000000000E+00 -0.13432367441E+01  0.13432461994E+01  0.50400000000E-02 0. -1.
          2    1    1    2    0  502  0.30750116925E+01  0.32766701730E+02  0.82129076298E+03  0.82194989494E+03  0.25500000000E-02 0.  1.
         -2    1    1    2  502    0 -0.30750116925E+01 -0.32766701730E+02  0.26611136884E+03  0.26813871983E+03  0.25500000000E-02 0.  1.
<mgrwt>
<rscale>  0 0.76483931E+02</rscale>
<asrwt>0</asrwt>
<pdfrwt beam="1">  1        1 0.16749900E+00 0.76483931E+02</pdfrwt>
<pdfrwt beam="2">  1       -1 0.20665289E-03 0.76483931E+02</pdfrwt>
<totfact> 0.21000467E+05</totfact>
</mgrwt>
</event>
<event>
 4    1  0.1893769E-002  0.4025790E+02  0.7818608E-02  0.1506322E+00
         -1   -1    0    0  501    0 -0.00000000000E+00  0.00000000000E+00  0.50538969098E+00  0.50541482106E+00  0.50400000000E-02 0.  1.
          1   -1    0    0    0  501  0.00000000000E+00 -0.00000000000E+00 -0.80168748827E+03  0.80168748828E+03  0.50400000000E-02 0.  1.
          2    1    1    2    0  502 -0.19334730738E+02 -0.53794104579E+01 -0.43149167800E+03  0.43195814387E+03  0.25500000000E-02 0. -1.
         -2    1    1    2  502    0  0.19334730738E+02  0.53794104579E+01 -0.36969042058E+03  0.37023475923E+03  0.25500000000E-02 0. -1.
<mgrwt>
<rscale>  0 0.40257902E+02</rscale>
<asrwt>0</asrwt>
<pdfrwt beam="2">  1        1 0.12333552E+00 0.40257902E+02</pdfrwt>
<pdfrwt beam="1">  1       -1 0.77754836E-04 0.40257902E+02</pdfrwt>
<totfact> 0.11204112E+06</totfact>
</mgrwt>
</event>
<event>
 4    1  0.1893769E-002  0.4258483E+02  0.7818608E-02  0.1490008E+00
         -1   -1    0    0  501    0 -0.00000000000E+00  0.00000000000E+00  0.53630822681E+02  0.53630822918E+02  0.50400000000E-02 0.  1.
          1   -1    0    0    0  501  0.00000000000E+00 -0.00000000000E+00 -0.84534764611E+01  0.84534779636E+01  0.50400000000E-02 0.  1.
          2    1    1    2    0  502 -0.17752929192E+02 -0.93615601371E+01  0.12222046585E+02  0.23498590008E+02  0.25500000000E-02 0. -1.
         -2    1    1    2  502    0  0.17752929192E+02  0.93615601371E+01  0.32955299635E+02  0.38585710874E+02  0.25500000000E-02 0. -1.
<mgrwt>
<rscale>  0 0.42584831E+02</rscale>
<asrwt>0</asrwt>
<pdfrwt beam="2">  1        1 0.13005350E-02 0.42584831E+02</pdfrwt>
<pdfrwt beam="1">  1       -1 0.82508960E-02 0.42584831E+02</pdfrwt>
<totfact> 0.60021873E+05</totfact>
</mgrwt>
</event>
<event>
 4    1  0.1893769E-002  0.4610528E+02  0.7818608E-02  0.1467557E+00
          1   -1    0    0    0  501  0.00000000000E+00  0.00000000000E+00  0.57353744172E+01  0.57353766317E+01  0.50400000000E-02 0. -1.
         -1   -1    0    0  501    0 -0.00000000000E+00 -0.00000000000E+00 -0.92657271335E+02  0.92657271472E+02  0.50400000000E-02 0. -1.
          2    1    1    2    0  502  0.20907891701E+02 -0.94015656861E+01 -0.38279520648E+02  0.44618954271E+02  0.25500000000E-02 0.  1.
         -2    1    1    2  502    0 -0.20907891701E+02  0.94015656861E+01 -0.48642376270E+02  0.53773693833E+02  0.25500000000E-02 0.  1.
<mgrwt>
<rscale>  0 0.46105282E+02</rscale>
<asrwt>0</asrwt>
<pdfrwt beam="1">  1        1 0.88236554E-03 0.46105282E+02</pdfrwt>
<pdfrwt beam="2">  1       -1 0.14254964E-01 0.46105282E+02</pdfrwt>
<totfact> 0.46009763E+05</totfact>
</mgrwt>
</event>
<event>
 4    1  0.1893769E-002  0.4766645E+02  0.7818608E-02  0.1458350E+00
          1   -1    0    0    0  501  0.00000000000E+00  0.00000000000E+00  0.10012449500E+04  0.10012449500E+04  0.50400000000E-02 0. -1.
         -1   -1    0    0  501    0 -0.00000000000E+00 -0.00000000000E+00 -0.56730512659E+00  0.56732751410E+00  0.50400000000E-02 0. -1.
          2    1    1    2    0  502  0.45483068176E+01  0.23393710276E+02  0.50589274138E+03  0.50645376745E+03  0.25500000000E-02 0. -1.
         -2    1    1    2  502    0 -0.45483068176E+01 -0.23393710276E+02  0.49478490348E+03  0.49535851007E+03  0.25500000000E-02 0. -1.
<mgrwt>
<rscale>  0 0.47666450E+02</rscale>
<asrwt>0</asrwt>
<pdfrwt beam="1">  1        1 0.15403561E+00 0.47666450E+02</pdfrwt>
<pdfrwt beam="2">  1       -1 0.87280609E-04 0.47666450E+02</pdfrwt>
<totfact> 0.71413517E+05</totfact>
</mgrwt>
</event>
<event>
 4    1  0.1893769E-002  0.4200775E+02  0.7818608E-02  0.1493936E+00
          1   -1    0    0    0  501  0.00000000000E+00  0.00000000000E+00  0.38548196861E+03  0.38548196864E+03  0.50400000000E-02 0. -1.
         -1   -1    0    0  501    0 -0.00000000000E+00 -0.00000000000E+00 -0.11444390770E+01  0.11444501748E+01  0.50400000000E-02 0. -1.
          2    1    1    2    0  502  0.13063009595E+01  0.20906074144E+02  0.17793301375E+03  0.17916173628E+03  0.25500000000E-02 0.  1.
         -2    1    1    2  502    0 -0.13063009595E+01 -0.20906074144E+02  0.20640451578E+03  0.20746468253E+03  0.25500000000E-02 0.  1.
<mgrwt>
<rscale>  0 0.42007751E+02</rscale>
<asrwt>0</asrwt>
<pdfrwt beam="1">  1        1 0.59304970E-01 0.42007751E+02</pdfrwt>
<pdfrwt beam="2">  1       -1 0.17606825E-03 0.42007751E+02</pdfrwt>
<totfact> 0.96605758E+05</totfact>
</mgrwt>
</event>
<event>
 4    1  0.1893769E-002  0.5224110E+02  0.7818608E-02  0.1433615E+00
         -1   -1    0    0  501    0 -0.00000000000E+00  0.00000000000E+00  0.23195240656E+01  0.23195295412E+01  0.50400000000E-02 0.  1.
          1   -1    0    0    0  501  0.00000000000E+00 -0.00000000000E+00 -0.29414756767E+03  0.29414756771E+03  0.50400000000E-02 0.  1.
          2    1    1    2    0  502 -0.17821029083E+01  0.20761860926E+02 -0.23529310625E+03  0.23621404830E+03  0.25500000000E-02 0.  1.
         -2    1    1    2  502    0  0.17821029083E+01 -0.20761860926E+02 -0.56534937351E+02  0.60253048949E+02  0.25500000000E-02 0.  1.
<mgrwt>
<rscale>  0 0.52241102E+02</rscale>
<asrwt>0</asrwt>
<pdfrwt beam="2">  1        1 0.45253443E-01 0.52241102E+02</pdfrwt>
<pdfrwt beam="1">  1       -1 0.35685051E-03 0.52241102E+02</pdfrwt>
<totfact> 0.53906749E+05</totfact>
</mgrwt>
</event>
<event>
 4    1  0.1893769E-002  0.5468103E+02  0.7818608E-02  0.1421613E+00
          1   -1    0    0    0  501  0.00000000000E+00  0.00000000000E+00  0.57518428386E+01  0.57518450467E+01  0.50400000000E-02 0.  1.
         -1   -1    0    0  501    0 -0.00000000000E+00 -0.00000000000E+00 -0.12995899307E+03  0.12995899316E+03  0.50400000000E-02 0.  1.
          2    1    1    2    0  502 -0.27287624026E+02 -0.14011202881E+01 -0.59714931120E+02  0.65669251315E+02  0.25500000000E-02 0. -1.
         -2    1    1    2  502    0  0.27287624026E+02  0.14011202881E+01 -0.64492219108E+02  0.70041586897E+02  0.25500000000E-02 0. -1.
<mgrwt>
<rscale>  0 0.54681034E+02</rscale>
<asrwt>0</asrwt>
<pdfrwt beam="1">  1        1 0.88489917E-03 0.54681034E+02</pdfrwt>
<pdfrwt beam="2">  1       -1 0.19993689E-01 0.54681034E+02</pdfrwt>
<totfact> 0.28406061E+05</totfact>
</mgrwt>
</event>
<event>
 4    1  0.1893769E-002  0.4010649E+02  0.7818608E-02  0.1507429E+00
         -1   -1    0    0  501    0 -0.00000000000E+00  0.00000000000E+00  0.14941558287E+03  0.14941558296E+03  0.50400000000E-02 0.  1.
          1   -1    0    0    0  501  0.00000000000E+00 -0.00000000000E+00 -0.26913678984E+01  0.26913726175E+01  0.50400000000E-02 0.  1.
          2    1    1    2    0  502 -0.51607169180E+00 -0.20017133675E+02  0.77483107695E+02  0.80028644591E+02  0.25500000000E-02 0. -1.
         -2    1    1    2  502    0  0.51607169180E+00  0.20017133675E+02  0.69241107279E+02  0.72078310983E+02  0.25500000000E-02 0. -1.
<mgrwt>
<rscale>  0 0.40106492E+02</rscale>
<asrwt>0</asrwt>
<pdfrwt beam="2">  1        1 0.41405682E-03 0.40106492E+02</pdfrwt>
<pdfrwt beam="1">  1       -1 0.22987021E-01 0.40106492E+02</pdfrwt>
<totfact> 0.59122644E+05</totfact>
</mgrwt>
</event>
<event>
 4    1  0.1893769E-002  0.4066337E+02  0.7818608E-02  0.1503386E+00
          1   -1    0    0    0  501  0.00000000000E+00  0.00000000000E+00  0.13111603262E+01  0.13111700128E+01  0.50400000000E-02 0.  1.
         -1   -1    0    0  501    0 -0.00000000000E+00 -0.00000000000E+00 -0.31527478844E+03  0.31527478848E+03  0.50400000000E-02 0.  1.
          2    1    1    2    0  502 -0.83160621758E+00  0.20173946246E+02 -0.13839793940E+03  0.13986303769E+03  0.25500000000E-02 0. -1.
         -2    1    1    2  502    0  0.83160621758E+00 -0.20173946246E+02 -0.17556568872E+03  0.17672292080E+03  0.25500000000E-02 0. -1.
<mgrwt>
<rscale>  0 0.40663366E+02</rscale>
<asrwt>0</asrwt>
<pdfrwt beam="1">  1        1 0.20171797E-03 0.40663366E+02</pdfrwt>
<pdfrwt beam="2">  1       -1 0.48503754E-01 0.40663366E+02</pdfrwt>
<totfact> 0.45625155E+05</totfact>
</mgrwt>
</event>
<event>
 4    1  0.1893769E-002  0.5151634E+02  0.7818608E-02  0.1437330E+00
         -1   -1    0    0  501    0 -0.00000000000E+00  0.00000000000E+00  0.11371726175E+02  0.11371727292E+02  0.50400000000E-02 0.  1.
          1   -1    0    0    0  501  0.00000000000E+00 -0.00000000000E+00 -0.58344993771E+02  0.58344993989E+02  0.50400000000E-02 0.  1.
          2    1    1    2    0  502  0.15025785035E+02 -0.15926639251E+02 -0.51271118864E+01  0.22488204387E+02  0.25500000000E-02 0. -1.
         -2    1    1    2  502    0 -0.15025785035E+02  0.15926639251E+02 -0.41846155710E+02  0.47228516893E+02  0.25500000000E-02 0. -1.
<mgrwt>
<rscale>  0 0.51516341E+02</rscale>
<asrwt>0</asrwt>
<pdfrwt beam="2">  1        1 0.89761529E-02 0.51516341E+02</pdfrwt>
<pdfrwt beam="1">  1       -1 0.17494965E-02 0.51516341E+02</pdfrwt>
<totfact> 0.43892029E+05</totfact>
</mgrwt>
</event>
<event>
 4    1  0.1893769E-002  0.4295171E+02  0.7818608E-02  0.1487549E+00
         -1   -1    0    0  501    0 -0.00000000000E+00  0.00000000000E+00  0.25459980435E+02  0.25459980934E+02  0.50400000000E-02 0. -1.
          1   -1    0    0    0  501  0.00000000000E+00 -0.00000000000E+00 -0.18115189695E+02  0.18115190396E+02  0.50400000000E-02 0. -1.
          2    1    1    2    0  502 -0.42417287926E+01  0.19626424631E+02 -0.40554942355E+01  0.20485015181E+02  0.25500000000E-02 0. -1.
         -2    1    1    2  502    0  0.42417287926E+01 -0.19626424631E+02  0.11400284976E+02  0.23090156149E+02  0.25500000000E-02 0. -1.
<mgrwt>
<rscale>  0 0.42951712E+02</rscale>
<asrwt>0</asrwt>
<pdfrwt beam="2">  1        1 0.27869524E-02 0.42951712E+02</pdfrwt>
<pdfrwt beam="1">  1       -1 0.39169201E-02 0.42951712E+02</pdfrwt>
<totfact> 0.63010540E+05</totfact>
</mgrwt>
</event>
<event>
 4    1  0.1893769E-002  0.5011928E+02  0.7818608E-02  0.1444699E+00
         -1   -1    0    0  501    0 -0.00000000000E+00  0.00000000000E+00  0.13147957082E+01  0.13148053681E+01  0.50400000000E-02 0. -1.
          1   -1    0    0    0  501  0.00000000000E+00 -0.00000000000E+00 -0.47762807175E+03  0.47762807178E+03  0.50400000000E-02 0. -1.
          2    1    1    2    0  502  0.22506000258E+02  0.82112368338E+01 -0.30840582921E+03  0.30933493168E+03  0.25500000000E-02 0.  1.
         -2    1    1    2  502    0 -0.22506000258E+02 -0.82112368338E+01 -0.16790744684E+03  0.16960794547E+03  0.25500000000E-02 0.  1.
<mgrwt>
<rscale>  0 0.50119284E+02</rscale>
<asrwt>0</asrwt>
<pdfrwt beam="2">  1        1 0.73481104E-01 0.50119284E+02</pdfrwt>
<pdfrwt beam="1">  1       -1 0.20227739E-03 0.50119284E+02</pdfrwt>
<totfact> 0.64441111E+05</totfact>
</mgrwt>
</event>
<event>
 4    1  0.1893769E-002  0.5273150E+02  0.7818608E-02  0.1431142E+00
          1   -1    0    0    0  501  0.00000000000E+00  0.00000000000E+00  0.17162722501E+01  0.17162796503E+01  0.50400000000E-02 0.  1.
         -1   -1    0    0  501    0 -0.00000000000E+00 -0.00000000000E+00 -0.40503551298E+03  0.40503551301E+03  0.50400000000E-02 0.  1.
          2    1    1    2    0  502 -0.21869280502E+02  0.14547849618E+02 -0.18398989863E+03  0.18585528823E+03  0.25500000000E-02 0. -1.
         -2    1    1    2  502    0  0.21869280502E+02 -0.14547849618E+02 -0.21932934209E+03  0.22089650443E+03  0.25500000000E-02 0. -1.
<mgrwt>
<rscale>  0 0.52731498E+02</rscale>
<asrwt>0</asrwt>
<pdfrwt beam="1">  1        1 0.26404278E-03 0.52731498E+02</pdfrwt>
<pdfrwt beam="2">  1       -1 0.62313081E-01 0.52731498E+02</pdfrwt>
<totfact> 0.21504972E+05</totfact>
</mgrwt>
</event>
<event>
 4    1  0.1893769E-002  0.8015341E+02  0.7818608E-02  0.1328617E+00
         -1   -1    0    0  501    0 -0.00000000000E+00  0.00000000000E+00  0.24318678061E+01  0.24318730288E+01  0.50400000000E-02 0.  1.
          1   -1    0    0    0  501  0.00000000000E+00 -0.00000000000E+00 -0.66045548843E+03  0.66045548845E+03  0.50400000000E-02 0.  1.
          2    1    1    2    0  502 -0.20765601025E+02 -0.15085447310E+01 -0.45805375906E+02  0.50315190167E+02  0.25500000000E-02 0.  1.
         -2    1    1    2  502    0  0.20765601025E+02  0.15085447310E+01 -0.61221824472E+03  0.61257217131E+03  0.25500000000E-02 0.  1.
<mgrwt>
<rscale>  0 0.80153407E+02</rscale>
<asrwt>0</asrwt>
<pdfrwt beam="2">  1        1 0.10160839E+00 0.80153407E+02</pdfrwt>
<pdfrwt beam="1">  1       -1 0.37413444E-03 0.80153407E+02</pdfrwt>
<totfact> 0.19943320E+05</totfact>
</mgrwt>
</event>
<event>
 4    1  0.1893769E-002  0.5490853E+02  0.7818608E-02  0.1420532E+00
         -1   -1    0    0  501    0 -0.00000000000E+00  0.00000000000E+00  0.49840656512E+02  0.49840656766E+02  0.50400000000E-02 0.  1.
          1   -1    0    0    0  501  0.00000000000E+00 -0.00000000000E+00 -0.15122925793E+02  0.15122926633E+02  0.50400000000E-02 0.  1.
          2    1    1    2    0  502 -0.26679997124E+02 -0.36261123277E+01  0.23704385298E+02  0.35872953963E+02  0.25500000000E-02 0.  1.
         -2    1    1    2  502    0  0.26679997124E+02  0.36261123277E+01  0.11013345420E+02  0.29090629437E+02  0.25500000000E-02 0.  1.
<mgrwt>
<rscale>  0 0.54908527E+02</rscale>
<asrwt>0</asrwt>
<pdfrwt beam="2">  1        1 0.23266041E-02 0.54908527E+02</pdfrwt>
<pdfrwt beam="1">  1       -1 0.76677933E-02 0.54908527E+02</pdfrwt>
<totfact> 0.32452985E+05</totfact>
</mgrwt>
</event>
<event>
 4    1  0.1893769E-002  0.5724322E+02  0.7818608E-02  0.1409779E+00
         -1   -1    0    0  501    0 -0.00000000000E+00  0.00000000000E+00  0.23830430570E+03  0.23830430575E+03  0.50400000000E-02 0.  1.
          1   -1    0    0    0  501  0.00000000000E+00 -0.00000000000E+00 -0.34376049990E+01  0.34376086937E+01  0.50400000000E-02 0.  1.
          2    1    1    2    0  502 -0.21931994216E+02  0.10479601609E+02  0.18125087042E+03  0.18287348757E+03  0.25500000000E-02 0.  1.
         -2    1    1    2  502    0  0.21931994216E+02 -0.10479601609E+02  0.53615830281E+02  0.58868426881E+02  0.25500000000E-02 0.  1.
<mgrwt>
<rscale>  0 0.57243219E+02</rscale>
<asrwt>0</asrwt>
<pdfrwt beam="2">  1        1 0.52886267E-03 0.57243219E+02</pdfrwt>
<pdfrwt beam="1">  1       -1 0.36662196E-01 0.57243219E+02</pdfrwt>
<totfact> 0.21706603E+05</totfact>
</mgrwt>
</event>
<event>
 4    1  0.1893769E-002  0.6741618E+02  0.7818608E-02  0.1369107E+00
         -1   -1    0    0  501    0 -0.00000000000E+00  0.00000000000E+00  0.75063205765E+00  0.75064897760E+00  0.50400000000E-02 0. -1.
          1   -1    0    0    0  501  0.00000000000E+00 -0.00000000000E+00 -0.15136878693E+04  0.15136878693E+04  0.50400000000E-02 0. -1.
          2    1    1    2    0  502 -0.24933467926E+02  0.48280039192E+01 -0.25857348327E+03  0.25981769320E+03  0.25500000000E-02 0. -1.
         -2    1    1    2  502    0  0.24933467926E+02 -0.48280039192E+01 -0.12543637540E+04  0.12546208251E+04  0.25500000000E-02 0. -1.
<mgrwt>
<rscale>  0 0.67416184E+02</rscale>
<asrwt>0</asrwt>
<pdfrwt beam="2">  1        1 0.23287262E+00 0.67416184E+02</pdfrwt>
<pdfrwt beam="1">  1       -1 0.11548437E-03 0.67416184E+02</pdfrwt>
<totfact> 0.24119757E+05</totfact>
</mgrwt>
</event>
<event>
 4    1  0.1893769E-002  0.4219115E+02  0.7818608E-02  0.1492679E+00
          1   -1    0    0    0  501  0.00000000000E+00  0.00000000000E+00  0.25174489247E+03  0.25174489252E+03  0.50400000000E-02 0. -1.
         -1   -1    0    0  501    0 -0.00000000000E+00 -0.00000000000E+00 -0.17677509136E+01  0.17677580983E+01  0.50400000000E-02 0. -1.
          2    1    1    2    0  502 -0.11992682870E+02  0.17182089179E+02  0.11030165249E+03  0.11227423203E+03  0.25500000000E-02 0.  1.
         -2    1    1    2  502    0  0.11992682870E+02 -0.17182089179E+02  0.13967548907E+03  0.14123841858E+03  0.25500000000E-02 0.  1.
<mgrwt>
<rscale>  0 0.42191145E+02</rscale>
<asrwt>0</asrwt>
<pdfrwt beam="1">  1        1 0.38729997E-01 0.42191145E+02</pdfrwt>
<pdfrwt beam="2">  1       -1 0.27196215E-03 0.42191145E+02</pdfrwt>
<totfact> 0.89045869E+05</totfact>
</mgrwt>
</event>
<event>
 4    1  0.1893769E-002  0.1045503E+03  0.7818608E-02  0.1271008E+00
          1   -1    0    0    0  501  0.00000000000E+00  0.00000000000E+00  0.19064901441E+03  0.19064901448E+03  0.50400000000E-02 0.  1.
         -1   -1    0    0  501    0 -0.00000000000E+00 -0.00000000000E+00 -0.14333612444E+02  0.14333613330E+02  0.50400000000E-02 0.  1.
          2    1    1    2    0  502  0.15427679899E+02  0.28551718219E+02  0.78090209294E+01  0.33379555640E+02  0.25500000000E-02 0.  1.
         -2    1    1    2  502    0 -0.15427679899E+02 -0.28551718219E+02  0.16850638104E+03  0.17160307217E+03  0.25500000000E-02 0.  1.
<mgrwt>
<rscale>  0 0.10455026E+03</rscale>
<asrwt>0</asrwt>
<pdfrwt beam="1">  1        1 0.29330616E-01 0.10455026E+03</pdfrwt>
<pdfrwt beam="2">  1       -1 0.22051714E-02 0.10455026E+03</pdfrwt>
<totfact> 0.81001463E+04</totfact>
</mgrwt>
</event>
<event>
 4    1  0.1893769E-002  0.5742713E+02  0.7818608E-02  0.1408957E+00
         -1   -1    0    0  501    0 -0.00000000000E+00  0.00000000000E+00  0.68367241512E+01  0.68367260089E+01  0.50400000000E-02 0.  1.
          1   -1    0    0    0  501  0.00000000000E+00 -0.00000000000E+00 -0.12059411315E+03  0.12059411326E+03  0.50400000000E-02 0.  1.
          2    1    1    2    0  502 -0.15180013690E+02 -0.14613702119E+02 -0.13595341756E+02  0.25076411809E+02  0.25500000000E-02 0. -1.
         -2    1    1    2  502    0  0.15180013690E+02  0.14613702119E+02 -0.10016204724E+03  0.10235442746E+03  0.25500000000E-02 0. -1.
<mgrwt>
<rscale>  0 0.57427130E+02</rscale>
<asrwt>0</asrwt>
<pdfrwt beam="2">  1        1 0.18552939E-01 0.57427130E+02</pdfrwt>
<pdfrwt beam="1">  1       -1 0.10518040E-02 0.57427130E+02</pdfrwt>
<totfact> 0.36457690E+05</totfact>
</mgrwt>
</event>
<event>
 4    1  0.1893769E-002  0.8508569E+02  0.7818608E-02  0.1315209E+00
         -1   -1    0    0  501    0 -0.00000000000E+00  0.00000000000E+00  0.25732867157E+01  0.25732916513E+01  0.50400000000E-02 0.  1.
          1   -1    0    0    0  501  0.00000000000E+00 -0.00000000000E+00 -0.70333860686E+03  0.70333860687E+03  0.50400000000E-02 0.  1.
          2    1    1    2    0  502  0.16850725871E+02 -0.38883775888E+02 -0.38142375223E+03  0.38377073072E+03  0.25500000000E-02 0.  1.
         -2    1    1    2  502    0 -0.16850725871E+02  0.38883775888E+02 -0.31934156791E+03  0.32214116780E+03  0.25500000000E-02 0.  1.
<mgrwt>
<rscale>  0 0.85085690E+02</rscale>
<asrwt>0</asrwt>
<pdfrwt beam="2">  1        1 0.10820579E+00 0.85085690E+02</pdfrwt>
<pdfrwt beam="1">  1       -1 0.39589121E-03 0.85085690E+02</pdfrwt>
<totfact> 0.17058634E+05</totfact>
</mgrwt>
</event>
<event>
 4    1  0.1893769E-002  0.4658390E+02  0.7818608E-02  0.1464689E+00
          1   -1    0    0    0  501  0.00000000000E+00  0.00000000000E+00  0.11760521679E+04  0.11760521679E+04  0.50400000000E-02 0.  1.
         -1   -1    0    0  501    0 -0.00000000000E+00 -0.00000000000E+00 -0.46128799419E+00  0.46131552671E+00  0.50400000000E-02 0.  1.
          2    1    1    2    0  502  0.37217962303E-01 -0.22719611988E+02  0.45819410461E+03  0.45875703772E+03  0.25500000000E-02 0. -1.
         -2    1    1    2  502    0 -0.37217962303E-01  0.22719611988E+02  0.71739677531E+03  0.71775644573E+03  0.25500000000E-02 0. -1.
<mgrwt>
<rscale>  0 0.46583901E+02</rscale>
<asrwt>0</asrwt>
<pdfrwt beam="1">  1        1 0.18093162E+00 0.46583901E+02</pdfrwt>
<pdfrwt beam="2">  1       -1 0.70969302E-04 0.46583901E+02</pdfrwt>
<totfact> 0.71505424E+05</totfact>
</mgrwt>
</event>
<event>
 4    1  0.1893769E-002  0.8563732E+02  0.7818608E-02  0.1313774E+00
          1   -1    0    0    0  501  0.00000000000E+00  0.00000000000E+00  0.43160664391E+02  0.43160664685E+02  0.50400000000E-02 0.  1.
         -1   -1    0    0  501    0 -0.00000000000E+00 -0.00000000000E+00 -0.42479363843E+02  0.42479364142E+02  0.50400000000E-02 0.  1.
          2    1    1    2    0  502  0.13032905698E+02  0.25584429005E+02  0.32106698343E+02  0.43072725981E+02  0.25500000000E-02 0. -1.
         -2    1    1    2  502    0 -0.13032905698E+02 -0.25584429005E+02 -0.31425397796E+02  0.42567302846E+02  0.25500000000E-02 0. -1.
<mgrwt>
<rscale>  0 0.85637319E+02</rscale>
<asrwt>0</asrwt>
<pdfrwt beam="1">  1        1 0.66401023E-02 0.85637319E+02</pdfrwt>
<pdfrwt beam="2">  1       -1 0.65352868E-02 0.85637319E+02</pdfrwt>
<totfact> 0.10929028E+05</totfact>
</mgrwt>
</event>
<event>
 4    1  0.1893769E-002  0.5311488E+02  0.7818608E-02  0.1429230E+00
         -1   -1    0    0  501    0 -0.00000000000E+00  0.00000000000E+00  0.16564544086E+02  0.16564544853E+02  0.50400000000E-02 0.  1.
          1   -1    0    0    0  501  0.00000000000E+00 -0.00000000000E+00 -0.42578742756E+02  0.42578743054E+02  0.50400000000E-02 0.  1.
          2    1    1    2    0  502 -0.25119500031E+02 -0.18498906310E+01 -0.22382068945E+02  0.33695228059E+02  0.25500000000E-02 0.  1.
         -2    1    1    2  502    0  0.25119500031E+02  0.18498906310E+01 -0.36321297240E+01  0.25448059848E+02  0.25500000000E-02 0.  1.
<mgrwt>
<rscale>  0 0.53114875E+02</rscale>
<asrwt>0</asrwt>
<pdfrwt beam="2">  1        1 0.65505758E-02 0.53114875E+02</pdfrwt>
<pdfrwt beam="1">  1       -1 0.25483915E-02 0.53114875E+02</pdfrwt>
<totfact> 0.39291671E+05</totfact>
</mgrwt>
</event>
<event>
 4    1  0.1893769E-002  0.1021301E+03  0.7818608E-02  0.1275879E+00
          1   -1    0    0    0  501  0.00000000000E+00  0.00000000000E+00  0.93605432466E+03  0.93605432468E+03  0.50400000000E-02 0.  1.
         -1   -1    0    0  501    0 -0.00000000000E+00 -0.00000000000E+00 -0.27857738383E+01  0.27857783975E+01  0.50400000000E-02 0.  1.
          2    1    1    2    0  502  0.49309266606E+02  0.81520773108E+01  0.37031904445E+03  0.37367640389E+03  0.25500000000E-02 0.  1.
         -2    1    1    2  502    0 -0.49309266606E+02 -0.81520773108E+01  0.56294950638E+03  0.56516369918E+03  0.25500000000E-02 0.  1.
<mgrwt>
<rscale>  0 0.10213007E+03</rscale>
<asrwt>0</asrwt>
<pdfrwt beam="1">  1        1 0.14400830E+00 0.10213007E+03</pdfrwt>
<pdfrwt beam="2">  1       -1 0.42858110E-03 0.10213007E+03</pdfrwt>
<totfact> 0.10218695E+05</totfact>
</mgrwt>
</event>
<event>
 4    1  0.1893769E-002  0.6876253E+02  0.7818608E-02  0.1364352E+00
         -1   -1    0    0  501    0 -0.00000000000E+00  0.00000000000E+00  0.86796749508E+02  0.86796749654E+02  0.50400000000E-02 0. -1.
          1   -1    0    0    0  501  0.00000000000E+00 -0.00000000000E+00 -0.13618842011E+02  0.13618842943E+02  0.50400000000E-02 0. -1.
          2    1    1    2    0  502  0.31110241330E+02 -0.14254328941E+02  0.41440716766E+02  0.53743520743E+02  0.25500000000E-02 0.  1.
         -2    1    1    2  502    0 -0.31110241330E+02  0.14254328941E+02  0.31737190731E+02  0.46672071855E+02  0.25500000000E-02 0.  1.
<mgrwt>
<rscale>  0 0.68762527E+02</rscale>
<asrwt>0</asrwt>
<pdfrwt beam="2">  1        1 0.20952066E-02 0.68762527E+02</pdfrwt>
<pdfrwt beam="1">  1       -1 0.13353346E-01 0.68762527E+02</pdfrwt>
<totfact> 0.17142638E+05</totfact>
</mgrwt>
</event>
<event>
 4    1  0.1893769E-002  0.4836433E+02  0.7818608E-02  0.1454369E+00
         -1   -1    0    0  501    0 -0.00000000000E+00  0.00000000000E+00  0.13383242915E+03  0.13383242925E+03  0.50400000000E-02 0. -1.
          1   -1    0    0    0  501  0.00000000000E+00 -0.00000000000E+00 -0.43694705848E+01  0.43694734915E+01  0.50400000000E-02 0. -1.
          2    1    1    2    0  502  0.30448850105E+01 -0.23179777016E+02  0.82393542572E+02  0.85646186438E+02  0.25500000000E-02 0. -1.
         -2    1    1    2  502    0 -0.30448850105E+01  0.23179777016E+02  0.47069415996E+02  0.52555716301E+02  0.25500000000E-02 0. -1.
<mgrwt>
<rscale>  0 0.48364329E+02</rscale>
<asrwt>0</asrwt>
<pdfrwt beam="2">  1        1 0.67222655E-03 0.48364329E+02</pdfrwt>
<pdfrwt beam="1">  1       -1 0.20589602E-01 0.48364329E+02</pdfrwt>
<totfact> 0.38298454E+05</totfact>
</mgrwt>
</event>
<event>
 4    1  0.1893769E-002  0.1104946E+03  0.7818608E-02  0.1259657E+00
          1   -1    0    0    0  501  0.00000000000E+00  0.00000000000E+00  0.29076999203E+03  0.29076999207E+03  0.50400000000E-02 0. -1.
         -1   -1    0    0  501    0 -0.00000000000E+00 -0.00000000000E+00 -0.10497175985E+02  0.10497177195E+02  0.50400000000E-02 0. -1.
          2    1    1    2    0  502 -0.50716855895E-01 -0.55008948289E+02  0.12615990179E+03  0.13763105678E+03  0.25500000000E-02 0. -1.
         -2    1    1    2  502    0  0.50716855895E-01  0.55008948289E+02  0.15411291425E+03  0.16363611249E+03  0.25500000000E-02 0. -1.
<mgrwt>
<rscale>  0 0.11049460E+03</rscale>
<asrwt>0</asrwt>
<pdfrwt beam="1">  1        1 0.44733844E-01 0.11049460E+03</pdfrwt>
<pdfrwt beam="2">  1       -1 0.16149503E-02 0.11049460E+03</pdfrwt>
<totfact> 0.75902844E+04</totfact>
</mgrwt>
</event>
<event>
 4    1  0.1893769E-002  0.5094798E+02  0.7818608E-02  0.1440294E+00
         -1   -1    0    0  501    0 -0.00000000000E+00  0.00000000000E+00  0.21379450240E+03  0.21379450246E+03  0.50400000000E-02 0. -1.
          1   -1    0    0    0  501  0.00000000000E+00 -0.00000000000E+00 -0.30352689356E+01  0.30352731200E+01  0.50400000000E-02 0. -1.
          2    1    1    2    0  502  0.17144590557E+01  0.24203559754E+02  0.72366139461E+02  0.76325682582E+02  0.25500000000E-02 0. -1.
         -2    1    1    2  502    0 -0.17144590557E+01 -0.24203559754E+02  0.13839309400E+03  0.14050409300E+03  0.25500000000E-02 0. -1.
<mgrwt>
<rscale>  0 0.50947984E+02</rscale>
<asrwt>0</asrwt>
<pdfrwt beam="2">  1        1 0.46696473E-03 0.50947984E+02</pdfrwt>
<pdfrwt beam="1">  1       -1 0.32891465E-01 0.50947984E+02</pdfrwt>
<totfact> 0.30022047E+05</totfact>
</mgrwt>
</event>
<event>
 4    1  0.1893769E-002  0.5224029E+02  0.7818608E-02  0.1433619E+00
          1   -1    0    0    0  501  0.00000000000E+00  0.00000000000E+00  0.50752664159E+02  0.50752664409E+02  0.50400000000E-02 0.  1.
         -1   -1    0    0  501    0 -0.00000000000E+00 -0.00000000000E+00 -0.13442878464E+02  0.13442879409E+02  0.50400000000E-02 0.  1.
          2    1    1    2    0  502  0.20218945757E+02  0.37392958224E+01 -0.11396781880E+01  0.20593372081E+02  0.25500000000E-02 0. -1.
         -2    1    1    2  502    0 -0.20218945757E+02 -0.37392958224E+01  0.38449463883E+02  0.43602171737E+02  0.25500000000E-02 0. -1.
<mgrwt>
<rscale>  0 0.52240288E+02</rscale>
<asrwt>0</asrwt>
<pdfrwt beam="1">  1        1 0.78081022E-02 0.52240288E+02</pdfrwt>
<pdfrwt beam="2">  1       -1 0.20681353E-02 0.52240288E+02</pdfrwt>
<totfact> 0.41738736E+05</totfact>
</mgrwt>
</event>
<event>
 4    1  0.1893769E-002  0.5898061E+02  0.7818608E-02  0.1402160E+00
         -1   -1    0    0  501    0 -0.00000000000E+00  0.00000000000E+00  0.72842437431E+00  0.72844181009E+00  0.50400000000E-02 0. -1.
          1   -1    0    0    0  501  0.00000000000E+00 -0.00000000000E+00 -0.11939024730E+04  0.11939024730E+04  0.50400000000E-02 0. -1.
          2    1    1    2    0  502 -0.25126831566E+01 -0.28987963526E+02 -0.49931736296E+03  0.50016441753E+03  0.25500000000E-02 0. -1.
         -2    1    1    2  502    0  0.25126831566E+01  0.28987963526E+02 -0.69385668567E+03  0.69446649729E+03  0.25500000000E-02 0. -1.
<mgrwt>
<rscale>  0 0.58980610E+02</rscale>
<asrwt>0</asrwt>
<pdfrwt beam="2">  1        1 0.18367574E+00 0.58980610E+02</pdfrwt>
<pdfrwt beam="1">  1       -1 0.11206759E-03 0.58980610E+02</pdfrwt>
<totfact> 0.39395579E+05</totfact>
</mgrwt>
</event>
<event>
 4    1  0.1893769E-002  0.4754328E+02  0.7818608E-02  0.1459061E+00
         -1   -1    0    0  501    0 -0.00000000000E+00  0.00000000000E+00  0.14910792542E+01  0.14910877720E+01  0.50400000000E-02 0.  1.
          1   -1    0    0    0  501  0.00000000000E+00 -0.00000000000E+00 -0.37898004593E+03  0.37898004596E+03  0.50400000000E-02 0.  1.
          2    1    1    2    0  502  0.19251870719E+01 -0.23659965292E+02 -0.19883732051E+03  0.20024929548E+03  0.25500000000E-02 0. -1.
         -2    1    1    2  502    0 -0.19251870719E+01  0.23659965292E+02 -0.17865164616E+03  0.18022183826E+03  0.25500000000E-02 0. -1.
<mgrwt>
<rscale>  0 0.47543282E+02</rscale>
<asrwt>0</asrwt>
<pdfrwt beam="2">  1        1 0.58304546E-01 0.47543282E+02</pdfrwt>
<pdfrwt beam="1">  1       -1 0.22939777E-03 0.47543282E+02</pdfrwt>
<totfact> 0.71109341E+05</totfact>
</mgrwt>
</event>
<event>
 4    1  0.1893769E-002  0.6256871E+02  0.7818608E-02  0.1387358E+00
          1   -1    0    0    0  501  0.00000000000E+00  0.00000000000E+00  0.11442339261E+03  0.11442339272E+03  0.50400000000E-02 0. -1.
         -1   -1    0    0  501    0 -0.00000000000E+00 -0.00000000000E+00 -0.85534144109E+01  0.85534158958E+01  0.50400000000E-02 0. -1.
          2    1    1    2    0  502 -0.25326293165E+02  0.16881445918E+02  0.67149883466E+02  0.73725919443E+02  0.25500000000E-02 0.  1.
         -2    1    1    2  502    0  0.25326293165E+02 -0.16881445918E+02  0.38720094733E+02  0.49250889174E+02  0.25500000000E-02 0.  1.
<mgrwt>
<rscale>  0 0.62568708E+02</rscale>
<asrwt>0</asrwt>
<pdfrwt beam="1">  1        1 0.17603598E-01 0.62568708E+02</pdfrwt>
<pdfrwt beam="2">  1       -1 0.13159101E-02 0.62568708E+02</pdfrwt>
<totfact> 0.29005898E+05</totfact>
</mgrwt>
</event>
<event>
 4    1  0.1893769E-002  0.7133819E+02  0.7818608E-02  0.1355601E+00
          1   -1    0    0    0  501  0.00000000000E+00  0.00000000000E+00  0.40654090142E+02  0.40654090455E+02  0.50400000000E-02 0. -1.
         -1   -1    0    0  501    0 -0.00000000000E+00 -0.00000000000E+00 -0.31295355489E+02  0.31295355895E+02  0.50400000000E-02 0. -1.
          2    1    1    2    0  502  0.36904618953E+01  0.34449696342E+02 -0.38716718234E+01  0.34862457404E+02  0.25500000000E-02 0. -1.
         -2    1    1    2  502    0 -0.36904618953E+01 -0.34449696342E+02  0.13230406476E+02  0.37086988946E+02  0.25500000000E-02 0. -1.
<mgrwt>
<rscale>  0 0.71338187E+02</rscale>
<asrwt>0</asrwt>
<pdfrwt beam="1">  1        1 0.62544754E-02 0.71338187E+02</pdfrwt>
<pdfrwt beam="2">  1       -1 0.48146701E-02 0.71338187E+02</pdfrwt>
<totfact> 0.17908437E+05</totfact>
</mgrwt>
</event>
<event>
 4    1  0.1893769E-002  0.4569566E+02  0.7818608E-02  0.1470045E+00
         -1   -1    0    0  501    0 -0.00000000000E+00  0.00000000000E+00  0.27905158084E+01  0.27905203598E+01  0.50400000000E-02 0.  1.
          1   -1    0    0    0  501  0.00000000000E+00 -0.00000000000E+00 -0.18707043099E+03  0.18707043105E+03  0.50400000000E-02 0.  1.
          2    1    1    2    0  502 -0.20896828923E+02 -0.47558081655E+01 -0.59232656371E+02  0.62990497359E+02  0.25500000000E-02 0. -1.
         -2    1    1    2  502    0  0.20896828923E+02  0.47558081655E+01 -0.12504725881E+03  0.12687045406E+03  0.25500000000E-02 0. -1.
<mgrwt>
<rscale>  0 0.45695664E+02</rscale>
<asrwt>0</asrwt>
<pdfrwt beam="2">  1        1 0.28780057E-01 0.45695664E+02</pdfrwt>
<pdfrwt beam="1">  1       -1 0.42931063E-03 0.45695664E+02</pdfrwt>
<totfact> 0.69536705E+05</totfact>
</mgrwt>
</event>
<event>
 4    1  0.1893769E-002  0.5461512E+02  0.7818608E-02  0.1421928E+00
          1   -1    0    0    0  501  0.00000000000E+00  0.00000000000E+00  0.88475795329E+01  0.88475809684E+01  0.50400000000E-02 0. -1.
         -1   -1    0    0  501    0 -0.00000000000E+00 -0.00000000000E+00 -0.84283260718E+02  0.84283260869E+02  0.50400000000E-02 0. -1.
          2    1    1    2    0  502  0.10886676634E+02  0.24331914067E+02 -0.27609296925E+02  0.38377533187E+02  0.25500000000E-02 0. -1.
         -2    1    1    2  502    0 -0.10886676634E+02 -0.24331914067E+02 -0.47826384260E+02  0.54753308651E+02  0.25500000000E-02 0. -1.
<mgrwt>
<rscale>  0 0.54615123E+02</rscale>
<asrwt>0</asrwt>
<pdfrwt beam="1">  1        1 0.13611663E-02 0.54615123E+02</pdfrwt>
<pdfrwt beam="2">  1       -1 0.12966655E-01 0.54615123E+02</pdfrwt>
<totfact> 0.30714320E+05</totfact>
</mgrwt>
</event>
<event>
 4    1  0.1893769E-002  0.6260431E+02  0.7818608E-02  0.1387217E+00
          1   -1    0    0    0  501  0.00000000000E+00  0.00000000000E+00  0.32406556055E+03  0.32406556059E+03  0.50400000000E-02 0. -1.
         -1   -1    0    0  501    0 -0.00000000000E+00 -0.00000000000E+00 -0.30235365989E+01  0.30235407995E+01  0.50400000000E-02 0. -1.
          2    1    1    2    0  502 -0.22452905829E+02 -0.17111377123E+02  0.89863247648E+02  0.94193075603E+02  0.25500000000E-02 0. -1.
         -2    1    1    2  502    0  0.22452905829E+02  0.17111377123E+02  0.23117877631E+03  0.23289602579E+03  0.25500000000E-02 0. -1.
<mgrwt>
<rscale>  0 0.62604306E+02</rscale>
<asrwt>0</asrwt>
<pdfrwt beam="1">  1        1 0.49856232E-01 0.62604306E+02</pdfrwt>
<pdfrwt beam="2">  1       -1 0.46515988E-03 0.62604306E+02</pdfrwt>
<totfact> 0.34675512E+05</totfact>
</mgrwt>
</event>
<event>
 4    1  0.1893769E-002  0.4533735E+02  0.7818608E-02  0.1472247E+00
         -1   -1    0    0  501    0 -0.00000000000E+00  0.00000000000E+00  0.31401812325E+00  0.31405856672E+00  0.50400000000E-02 0. -1.
          1   -1    0    0    0  501  0.00000000000E+00 -0.00000000000E+00 -0.16363250241E+04  0.16363250242E+04  0.50400000000E-02 0. -1.
          2    1    1    2    0  502  0.15033899020E+02 -0.13645180127E+02 -0.11819802943E+04  0.11821546537E+04  0.25500000000E-02 0. -1.
         -2    1    1    2  502    0 -0.15033899020E+02  0.13645180127E+02 -0.45403071173E+03  0.45448442907E+03  0.25500000000E-02 0. -1.
<mgrwt>
<rscale>  0 0.45337350E+02</rscale>
<asrwt>0</asrwt>
<pdfrwt beam="2">  1        1 0.25173549E+00 0.45337350E+02</pdfrwt>
<pdfrwt beam="1">  1       -1 0.48314902E-04 0.45337350E+02</pdfrwt>
<totfact> 0.61171292E+05</totfact>
</mgrwt>
</event>
<event>
 4    1  0.1893769E-002  0.4863037E+02  0.7818608E-02  0.1452872E+00
         -1   -1    0    0  501    0 -0.00000000000E+00  0.00000000000E+00  0.10376532784E+04  0.10376532784E+04  0.50400000000E-02 0.  1.
          1   -1    0    0    0  501  0.00000000000E+00 -0.00000000000E+00 -0.56976311285E+00  0.56978540378E+00  0.50400000000E-02 0.  1.
          2    1    1    2    0  502 -0.18276743820E+02 -0.15697224054E+02  0.58865690295E+03  0.58914971917E+03  0.25500000000E-02 0.  1.
         -2    1    1    2  502    0  0.18276743820E+02  0.15697224054E+02  0.44842661232E+03  0.44907334462E+03  0.25500000000E-02 0.  1.
<mgrwt>
<rscale>  0 0.48630367E+02</rscale>
<asrwt>0</asrwt>
<pdfrwt beam="2">  1        1 0.87658652E-04 0.48630367E+02</pdfrwt>
<pdfrwt beam="1">  1       -1 0.15963701E+00 0.48630367E+02</pdfrwt>
<totfact> 0.12199013E+05</totfact>
</mgrwt>
</event>
<event>
 4    1  0.1893769E-002  0.7461270E+02  0.7818608E-02  0.1345075E+00
         -1   -1    0    0  501    0 -0.00000000000E+00  0.00000000000E+00  0.36735346290E+03  0.36735346293E+03  0.50400000000E-02 0. -1.
          1   -1    0    0    0  501  0.00000000000E+00 -0.00000000000E+00 -0.37886209212E+01  0.37886242736E+01  0.50400000000E-02 0. -1.
          2    1    1    2    0  502 -0.16270180296E+02 -0.26620382503E+02  0.28352983008E+03  0.28524117530E+03  0.25500000000E-02 0. -1.
         -2    1    1    2  502    0  0.16270180296E+02  0.26620382503E+02  0.80035011895E+02  0.85900911910E+02  0.25500000000E-02 0. -1.
<mgrwt>
<rscale>  0 0.74612697E+02</rscale>
<asrwt>0</asrwt>
<pdfrwt beam="2">  1        1 0.58286495E-03 0.74612697E+02</pdfrwt>
<pdfrwt beam="1">  1       -1 0.56515924E-01 0.74612697E+02</pdfrwt>
<totfact> 0.93512681E+04</totfact>
</mgrwt>
</event>
<event>
 4    1  0.1893769E-002  0.9555650E+02  0.7818608E-02  0.1289928E+00
         -1   -1    0    0  501    0 -0.00000000000E+00  0.00000000000E+00  0.20863914011E+02  0.20863914620E+02  0.50400000000E-02 0. -1.
          1   -1    0    0    0  501  0.00000000000E+00 -0.00000000000E+00 -0.10941192083E+03  0.10941192095E+03  0.50400000000E-02 0. -1.
          2    1    1    2    0  502 -0.38723221640E+02  0.23255444251E+02 -0.23045403783E+02  0.50708916608E+02  0.25500000000E-02 0. -1.
         -2    1    1    2  502    0  0.38723221640E+02 -0.23255444251E+02 -0.65502603038E+02  0.79566918960E+02  0.25500000000E-02 0. -1.
<mgrwt>
<rscale>  0 0.95556495E+02</rscale>
<asrwt>0</asrwt>
<pdfrwt beam="2">  1        1 0.16832603E-01 0.95556495E+02</pdfrwt>
<pdfrwt beam="1">  1       -1 0.32098330E-02 0.95556495E+02</pdfrwt>
<totfact> 0.93296792E+04</totfact>
</mgrwt>
</event>
<event>
 4    1  0.1893769E-002  0.5520660E+02  0.7818608E-02  0.1419124E+00
         -1   -1    0    0  501    0 -0.00000000000E+00  0.00000000000E+00  0.62335728592E+01  0.62335748967E+01  0.50400000000E-02 0.  1.
          1   -1    0    0    0  501  0.00000000000E+00 -0.00000000000E+00 -0.12223197463E+03  0.12223197473E+03  0.50400000000E-02 0.  1.
          2    1    1    2    0  502 -0.69571781827E+01 -0.26377471788E+02 -0.48190226681E+02  0.55375728440E+02  0.25500000000E-02 0.  1.
         -2    1    1    2  502    0  0.69571781827E+01  0.26377471788E+02 -0.67808175089E+02  0.73089821190E+02  0.25500000000E-02 0.  1.
<mgrwt>
<rscale>  0 0.55206596E+02</rscale>
<asrwt>0</asrwt>
<pdfrwt beam="2">  1        1 0.18804918E-01 0.55206596E+02</pdfrwt>
<pdfrwt beam="1">  1       -1 0.95901146E-03 0.55206596E+02</pdfrwt>
<totfact> 0.40404764E+05</totfact>
</mgrwt>
</event>
<event>
 4    1  0.1893769E-002  0.6232234E+02  0.7818608E-02  0.1388337E+00
         -1   -1    0    0  501    0 -0.00000000000E+00  0.00000000000E+00  0.12559887148E+01  0.12559988269E+01  0.50400000000E-02 0.  1.
          1   -1    0    0    0  501  0.00000000000E+00 -0.00000000000E+00 -0.77310764141E+03  0.77310764143E+03  0.50400000000E-02 0.  1.
          2    1    1    2    0  502  0.10412386895E+02  0.29301284235E+02 -0.41088560448E+03  0.41206063028E+03  0.25500000000E-02 0.  1.
         -2    1    1    2  502    0 -0.10412386895E+02 -0.29301284235E+02 -0.36096604822E+03  0.36230300997E+03  0.25500000000E-02 0.  1.
<mgrwt>
<rscale>  0 0.62322336E+02</rscale>
<asrwt>0</asrwt>
<pdfrwt beam="2">  1        1 0.11893926E+00 0.62322336E+02</pdfrwt>
<pdfrwt beam="1">  1       -1 0.19323043E-03 0.62322336E+02</pdfrwt>
<totfact> 0.38010227E+05</totfact>
</mgrwt>
</event>
<event>
 4    1  0.1893769E-002  0.9716327E+02  0.7818608E-02  0.1286377E+00
         -1   -1    0    0  501    0 -0.00000000000E+00  0.00000000000E+00  0.54392208465E+03  0.54392208468E+03  0.50400000000E-02 0.  1.
          1   -1    0    0    0  501  0.00000000000E+00 -0.00000000000E+00 -0.43391774018E+01  0.43391803288E+01  0.50400000000E-02 0.  1.
          2    1    1    2    0  502  0.60460706547E+01 -0.47136849771E+02  0.32670639354E+03  0.33014467308E+03  0.25500000000E-02 0.  1.
         -2    1    1    2  502    0 -0.60460706547E+01  0.47136849771E+02  0.21287651371E+03  0.21811659192E+03  0.25500000000E-02 0.  1.
<mgrwt>
<rscale>  0 0.97163269E+02</rscale>
<asrwt>0</asrwt>
<pdfrwt beam="2">  1        1 0.66756595E-03 0.97163269E+02</pdfrwt>
<pdfrwt beam="1">  1       -1 0.83680325E-01 0.97163269E+02</pdfrwt>
<totfact> 0.37702273E+04</totfact>
</mgrwt>
</event>
<event>
 4    1  0.1893769E-002  0.9464062E+02  0.7818608E-02  0.1291988E+00
          1   -1    0    0    0  501  0.00000000000E+00  0.00000000000E+00  0.32325878893E+03  0.32325878897E+03  0.50400000000E-02 0. -1.
         -1   -1    0    0  501    0 -0.00000000000E+00 -0.00000000000E+00 -0.69269938548E+01  0.69269956883E+01  0.50400000000E-02 0. -1.
          2    1    1    2    0  502  0.24831076470E+02 -0.24668421064E+02  0.26926763836E+03  0.27153300800E+03  0.25500000000E-02 0. -1.
         -2    1    1    2  502    0 -0.24831076470E+02  0.24668421064E+02  0.47064156717E+02  0.58652776664E+02  0.25500000000E-02 0. -1.
<mgrwt>
<rscale>  0 0.94640625E+02</rscale>
<asrwt>0</asrwt>
<pdfrwt beam="1">  1        1 0.49732119E-01 0.94640625E+02</pdfrwt>
<pdfrwt beam="2">  1       -1 0.10656916E-02 0.94640625E+02</pdfrwt>
<totfact> 0.11763031E+05</totfact>
</mgrwt>
</event>
<event>
 4    1  0.1893769E-002  0.4907341E+02  0.7818608E-02  0.1450404E+00
          1   -1    0    0    0  501  0.00000000000E+00  0.00000000000E+00  0.33329880606E+03  0.33329880610E+03  0.50400000000E-02 0. -1.
         -1   -1    0    0  501    0 -0.00000000000E+00 -0.00000000000E+00 -0.18063334953E+01  0.18063405266E+01  0.50400000000E-02 0. -1.
          2    1    1    2    0  502  0.23991599950E+02  0.38436737561E+01  0.18908311930E+03  0.19063786798E+03  0.25500000000E-02 0. -1.
         -2    1    1    2  502    0 -0.23991599950E+02 -0.38436737561E+01  0.14240935326E+03  0.14446727864E+03  0.25500000000E-02 0. -1.
<mgrwt>
<rscale>  0 0.49073414E+02</rscale>
<asrwt>0</asrwt>
<pdfrwt beam="1">  1        1 0.51276738E-01 0.49073414E+02</pdfrwt>
<pdfrwt beam="2">  1       -1 0.27789802E-03 0.49073414E+02</pdfrwt>
<totfact> 0.64385957E+05</totfact>
</mgrwt>
</event>
<event>
 4    1  0.1893769E-002  0.8624564E+02  0.7818608E-02  0.1312207E+00
         -1   -1    0    0  501    0 -0.00000000000E+00  0.00000000000E+00  0.79705364649E+00  0.79706958102E+00  0.50400000000E-02 0. -1.
          1   -1    0    0    0  501  0.00000000000E+00 -0.00000000000E+00 -0.23330413623E+04  0.23330413623E+04  0.50400000000E-02 0. -1.
          2    1    1    2    0  502 -0.31757144980E+02 -0.22819151346E+02 -0.16579570392E+04  0.16584181541E+04  0.25500000000E-02 0. -1.
         -2    1    1    2  502    0  0.31757144980E+02  0.22819151346E+02 -0.67428726937E+03  0.67542027773E+03  0.25500000000E-02 0. -1.
<mgrwt>
<rscale>  0 0.86245643E+02</rscale>
<asrwt>0</asrwt>
<pdfrwt beam="2">  1        1 0.35892397E+00 0.86245643E+02</pdfrwt>
<pdfrwt beam="1">  1       -1 0.12262673E-03 0.86245643E+02</pdfrwt>
<totfact> 0.70504259E+04</totfact>
</mgrwt>
</event>
<event>
 4    1  0.1893769E-002  0.7110717E+02  0.7818608E-02  0.1356368E+00
         -1   -1    0    0  501    0 -0.00000000000E+00  0.00000000000E+00  0.40462092734E+02  0.40462093048E+02  0.50400000000E-02 0. -1.
          1   -1    0    0    0  501  0.00000000000E+00 -0.00000000000E+00 -0.31240534346E+02  0.31240534752E+02  0.50400000000E-02 0. -1.
          2    1    1    2    0  502  0.29824898432E+02  0.69479776774E+01 -0.13603104694E+02  0.33508855905E+02  0.25500000000E-02 0.  1.
         -2    1    1    2  502    0 -0.29824898432E+02 -0.69479776774E+01  0.22824663083E+02  0.38193771895E+02  0.25500000000E-02 0.  1.
<mgrwt>
<rscale>  0 0.71107170E+02</rscale>
<asrwt>0</asrwt>
<pdfrwt beam="2">  1        1 0.48062361E-02 0.71107170E+02</pdfrwt>
<pdfrwt beam="1">  1       -1 0.62249373E-02 0.71107170E+02</pdfrwt>
<totfact> 0.17493881E+05</totfact>
</mgrwt>
</event>
<event>
 4    1  0.1893769E-002  0.4178799E+02  0.7818608E-02  0.1495451E+00
          1   -1    0    0    0  501  0.00000000000E+00  0.00000000000E+00  0.99211693563E+02  0.99211693691E+02  0.50400000000E-02 0. -1.
         -1   -1    0    0  501    0 -0.00000000000E+00 -0.00000000000E+00 -0.44002760192E+01  0.44002789056E+01  0.50400000000E-02 0. -1.
          2    1    1    2    0  502 -0.10489801515E+02  0.17492838329E+02  0.36172965014E+02  0.41527325137E+02  0.25500000000E-02 0.  1.
         -2    1    1    2  502    0  0.10489801515E+02 -0.17492838329E+02  0.58638452529E+02  0.62084647459E+02  0.25500000000E-02 0.  1.
<mgrwt>
<rscale>  0 0.41787988E+02</rscale>
<asrwt>0</asrwt>
<pdfrwt beam="1">  1        1 0.15263338E-01 0.41787988E+02</pdfrwt>
<pdfrwt beam="2">  1       -1 0.67696575E-03 0.41787988E+02</pdfrwt>
<totfact> 0.78932747E+05</totfact>
</mgrwt>
</event>
<event>
 4    1  0.1893769E-002  0.6908651E+02  0.7818608E-02  0.1363227E+00
          1   -1    0    0    0  501  0.00000000000E+00  0.00000000000E+00  0.27226766356E+03  0.27226766360E+03  0.50400000000E-02 0. -1.
         -1   -1    0    0  501    0 -0.00000000000E+00 -0.00000000000E+00 -0.43825840479E+01  0.43825869460E+01  0.50400000000E-02 0. -1.
          2    1    1    2    0  502  0.25187377375E+02  0.21818969745E+02  0.97512391672E+02  0.10304920163E+03  0.25500000000E-02 0. -1.
         -2    1    1    2  502    0 -0.25187377375E+02 -0.21818969745E+02  0.17037268784E+03  0.17360104892E+03  0.25500000000E-02 0. -1.
<mgrwt>
<rscale>  0 0.69086506E+02</rscale>
<asrwt>0</asrwt>
<pdfrwt beam="1">  1        1 0.41887338E-01 0.69086506E+02</pdfrwt>
<pdfrwt beam="2">  1       -1 0.67424385E-03 0.69086506E+02</pdfrwt>
<totfact> 0.26073545E+05</totfact>
</mgrwt>
</event>
<event>
 4    1  0.1893769E-002  0.5335726E+02  0.7818608E-02  0.1428031E+00
          1   -1    0    0    0  501  0.00000000000E+00  0.00000000000E+00  0.11265920756E+02  0.11265921883E+02  0.50400000000E-02 0.  1.
         -1   -1    0    0  501    0 -0.00000000000E+00 -0.00000000000E+00 -0.63177186678E+02  0.63177186879E+02  0.50400000000E-02 0.  1.
          2    1    1    2    0  502  0.24196763541E+02 -0.54819584421E+01 -0.12270465700E+02  0.27678503739E+02  0.25500000000E-02 0.  1.
         -2    1    1    2  502    0 -0.24196763541E+02  0.54819584421E+01 -0.39640800222E+02  0.46764605023E+02  0.25500000000E-02 0.  1.
<mgrwt>
<rscale>  0 0.53357257E+02</rscale>
<asrwt>0</asrwt>
<pdfrwt beam="1">  1        1 0.17332187E-02 0.53357257E+02</pdfrwt>
<pdfrwt beam="2">  1       -1 0.97195671E-02 0.53357257E+02</pdfrwt>
<totfact> 0.33863881E+05</totfact>
</mgrwt>
</event>
<event>
 4    1  0.1893769E-002  0.5151159E+02  0.7818608E-02  0.1437355E+00
         -1   -1    0    0  501    0 -0.00000000000E+00  0.00000000000E+00  0.32730156867E+02  0.32730157255E+02  0.50400000000E-02 0. -1.
          1   -1    0    0    0  501  0.00000000000E+00 -0.00000000000E+00 -0.20267579517E+02  0.20267580144E+02  0.50400000000E-02 0. -1.
          2    1    1    2    0  502  0.17006010355E+02  0.16917728411E+02  0.15879864953E+02  0.28767760431E+02  0.25500000000E-02 0.  1.
         -2    1    1    2  502    0 -0.17006010355E+02 -0.16917728411E+02 -0.34172876030E+01  0.24229976968E+02  0.25500000000E-02 0.  1.
<mgrwt>
<rscale>  0 0.51511594E+02</rscale>
<asrwt>0</asrwt>
<pdfrwt beam="2">  1        1 0.31180893E-02 0.51511594E+02</pdfrwt>
<pdfrwt beam="1">  1       -1 0.50354088E-02 0.51511594E+02</pdfrwt>
<totfact> 0.39678874E+05</totfact>
</mgrwt>
</event>
<event>
 4    1  0.1893769E-002  0.6512985E+02  0.7818608E-02  0.1377484E+00
         -1   -1    0    0  501    0 -0.00000000000E+00  0.00000000000E+00  0.41509751893E+01  0.41509782491E+01  0.50400000000E-02 0. -1.
          1   -1    0    0    0  501  0.00000000000E+00 -0.00000000000E+00 -0.25547583362E+03  0.25547583367E+03  0.50400000000E-02 0. -1.
          2    1    1    2    0  502  0.20795762628E+02  0.22526610705E+02 -0.16943229982E+03  0.17218366984E+03  0.25500000000E-02 0.  1.
         -2    1    1    2  502    0 -0.20795762628E+02 -0.22526610705E+02 -0.81892558613E+02  0.87443142074E+02  0.25500000000E-02 0.  1.
<mgrwt>
<rscale>  0 0.65129847E+02</rscale>
<asrwt>0</asrwt>
<pdfrwt beam="2">  1        1 0.39303962E-01 0.65129847E+02</pdfrwt>
<pdfrwt beam="1">  1       -1 0.63861201E-03 0.65129847E+02</pdfrwt>
<totfact> 0.30007033E+05</totfact>
</mgrwt>
</event>
<event>
 4    1  0.1893769E-002  0.1580155E+03  0.7818608E-02  0.1190956E+00
         -1   -1    0    0  501    0 -0.00000000000E+00  0.00000000000E+00  0.31850999081E+01  0.31851038957E+01  0.50400000000E-02 0. -1.
          1   -1    0    0    0  501  0.00000000000E+00 -0.00000000000E+00 -0.19598184664E+04  0.19598184664E+04  0.50400000000E-02 0. -1.
          2    1    1    2    0  502 -0.60482704455E+02  0.51338586953E+01 -0.16065875799E+04  0.16077338604E+04  0.25500000000E-02 0.  1.
         -2    1    1    2  502    0  0.60482704455E+02 -0.51338586953E+01 -0.35004578663E+03  0.35526970992E+03  0.25500000000E-02 0.  1.
<mgrwt>
<rscale>  0 0.15801546E+03</rscale>
<asrwt>0</asrwt>
<pdfrwt beam="2">  1        1 0.30150957E+00 0.15801546E+03</pdfrwt>
<pdfrwt beam="1">  1       -1 0.49001724E-03 0.15801546E+03</pdfrwt>
<totfact> 0.18398146E+04</totfact>
</mgrwt>
</event>
<event>
 4    1  0.1893769E-002  0.5364521E+02  0.7818608E-02  0.1426617E+00
          1   -1    0    0    0  501  0.00000000000E+00  0.00000000000E+00  0.80069552511E+02  0.80069552669E+02  0.50400000000E-02 0. -1.
         -1   -1    0    0  501    0 -0.00000000000E+00 -0.00000000000E+00 -0.89853391842E+01  0.89853405977E+01  0.50400000000E-02 0. -1.
          2    1    1    2    0  502  0.22828297599E+02  0.12100774331E+02  0.47500643429E+02  0.54072830917E+02  0.25500000000E-02 0.  1.
         -2    1    1    2  502    0 -0.22828297599E+02 -0.12100774331E+02  0.23583569897E+02  0.34982062350E+02  0.25500000000E-02 0.  1.
<mgrwt>
<rscale>  0 0.53645211E+02</rscale>
<asrwt>0</asrwt>
<pdfrwt beam="1">  1        1 0.12318393E-01 0.53645211E+02</pdfrwt>
<pdfrwt beam="2">  1       -1 0.13823600E-02 0.53645211E+02</pdfrwt>
<totfact> 0.41037519E+05</totfact>
</mgrwt>
</event>
<event>
 4    1  0.1893769E-002  0.5022245E+02  0.7818608E-02  0.1444145E+00
          1   -1    0    0    0  501  0.00000000000E+00  0.00000000000E+00  0.69716319337E+03  0.69716319339E+03  0.50400000000E-02 0. -1.
         -1   -1    0    0  501    0 -0.00000000000E+00 -0.00000000000E+00 -0.90447793305E+00  0.90449197508E+00  0.50400000000E-02 0. -1.
          2    1    1    2    0  502 -0.24369157687E+02  0.36042754360E+01  0.41583437349E+03  0.41656340793E+03  0.25500000000E-02 0. -1.
         -2    1    1    2  502    0  0.24369157687E+02 -0.36042754360E+01  0.28042434195E+03  0.28150427744E+03  0.25500000000E-02 0. -1.
<mgrwt>
<rscale>  0 0.50222450E+02</rscale>
<asrwt>0</asrwt>
<pdfrwt beam="1">  1        1 0.10725615E+00 0.50222450E+02</pdfrwt>
<pdfrwt beam="2">  1       -1 0.13915118E-03 0.50222450E+02</pdfrwt>
<totfact> 0.65631235E+05</totfact>
</mgrwt>
</event>
<event>
 4    1  0.1893769E-002  0.4271132E+02  0.7818608E-02  0.1489157E+00
         -1   -1    0    0  501    0 -0.00000000000E+00  0.00000000000E+00  0.12342765571E+03  0.12342765581E+03  0.50400000000E-02 0.  1.
          1   -1    0    0    0  501  0.00000000000E+00 -0.00000000000E+00 -0.36949896819E+01  0.36949931192E+01  0.50400000000E-02 0.  1.
          2    1    1    2    0  502 -0.18075928544E+02 -0.11210437437E+02  0.65553393250E+02  0.68917780531E+02  0.25500000000E-02 0.  1.
         -2    1    1    2  502    0  0.18075928544E+02  0.11210437437E+02  0.54179272776E+02  0.58204868399E+02  0.25500000000E-02 0.  1.
<mgrwt>
<rscale>  0 0.42711317E+02</rscale>
<asrwt>0</asrwt>
<pdfrwt beam="2">  1        1 0.56846019E-03 0.42711317E+02</pdfrwt>
<pdfrwt beam="1">  1       -1 0.18988872E-01 0.42711317E+02</pdfrwt>
<totfact> 0.52785803E+05</totfact>
</mgrwt>
</event>
<event>
 4    1  0.1893769E-002  0.4952425E+02  0.7818608E-02  0.1447925E+00
         -1   -1    0    0  501    0 -0.00000000000E+00  0.00000000000E+00  0.13578969845E+04  0.13578969845E+04  0.50400000000E-02 0.  1.
          1   -1    0    0    0  501  0.00000000000E+00 -0.00000000000E+00 -0.45153914274E+00  0.45156726966E+00  0.50400000000E-02 0.  1.
          2    1    1    2    0  502  0.17427180680E+02 -0.16822424509E+02  0.53762957776E+03  0.53817493762E+03  0.25500000000E-02 0.  1.
         -2    1    1    2  502    0 -0.17427180680E+02  0.16822424509E+02  0.81981586763E+03  0.82017361419E+03  0.25500000000E-02 0.  1.
<mgrwt>
<rscale>  0 0.49524247E+02</rscale>
<asrwt>0</asrwt>
<pdfrwt beam="2">  1        1 0.69469307E-04 0.49524247E+02</pdfrwt>
<pdfrwt beam="1">  1       -1 0.20890849E+00 0.49524247E+02</pdfrwt>
<totfact> 0.78886981E+04</totfact>
</mgrwt>
</event>
<event>
 4    1  0.1893769E-002  0.4450911E+02  0.7818608E-02  0.1477430E+00
          1   -1    0    0    0  501  0.00000000000E+00  0.00000000000E+00  0.15803779007E+01  0.15803859373E+01  0.50400000000E-02 0.  1.
         -1   -1    0    0  501    0 -0.00000000000E+00 -0.00000000000E+00 -0.31338321860E+03  0.31338321864E+03  0.50400000000E-02 0.  1.
          2    1    1    2    0  502  0.77484870534E+01 -0.20860855270E+02 -0.15749705342E+03  0.15906142265E+03  0.25500000000E-02 0. -1.
         -2    1    1    2  502    0 -0.77484870534E+01  0.20860855270E+02 -0.15430578728E+03  0.15590218192E+03  0.25500000000E-02 0. -1.
<mgrwt>
<rscale>  0 0.44509109E+02</rscale>
<asrwt>0</asrwt>
<pdfrwt beam="1">  1        1 0.24313593E-03 0.44509109E+02</pdfrwt>
<pdfrwt beam="2">  1       -1 0.48212754E-01 0.44509109E+02</pdfrwt>
<totfact> 0.36711624E+05</totfact>
</mgrwt>
</event>
<event>
 4    1  0.1893769E-002  0.5053128E+02  0.7818608E-02  0.1442497E+00
          1   -1    0    0    0  501  0.00000000000E+00  0.00000000000E+00  0.39208613656E+01  0.39208646049E+01  0.50400000000E-02 0. -1.
         -1   -1    0    0  501    0 -0.00000000000E+00 -0.00000000000E+00 -0.16280916558E+03  0.16280916566E+03  0.50400000000E-02 0. -1.
          2    1    1    2    0  502  0.58034872053E+01 -0.20043436258E+02 -0.12644757871E+03  0.12815775422E+03  0.25500000000E-02 0. -1.
         -2    1    1    2  502    0 -0.58034872053E+01  0.20043436258E+02 -0.32440725507E+02  0.38572276037E+02  0.25500000000E-02 0. -1.
<mgrwt>
<rscale>  0 0.50531275E+02</rscale>
<asrwt>0</asrwt>
<pdfrwt beam="1">  1        1 0.60320982E-03 0.50531275E+02</pdfrwt>
<pdfrwt beam="2">  1       -1 0.25047559E-01 0.50531275E+02</pdfrwt>
<totfact> 0.32918269E+05</totfact>
</mgrwt>
</event>
<event>
 4    1  0.1893769E-002  0.4946493E+02  0.7818608E-02  0.1448249E+00
          1   -1    0    0    0  501  0.00000000000E+00  0.00000000000E+00  0.24984048511E+04  0.24984048511E+04  0.50400000000E-02 0. -1.
         -1   -1    0    0  501    0 -0.00000000000E+00 -0.00000000000E+00 -0.24480817384E+00  0.24486004897E+00  0.50400000000E-02 0. -1.
          2    1    1    2    0  502  0.23743816702E+02 -0.63019837980E+01  0.11043350254E+04  0.11046082257E+04  0.25500000000E-02 0.  1.
         -2    1    1    2  502    0 -0.23743816702E+02  0.63019837980E+01  0.13938250174E+04  0.13940414854E+04  0.25500000000E-02 0.  1.
<mgrwt>
<rscale>  0 0.49464927E+02</rscale>
<asrwt>0</asrwt>
<pdfrwt beam="1">  1        1 0.38437291E+00 0.49464927E+02</pdfrwt>
<pdfrwt beam="2">  1       -1 0.37666500E-04 0.49464927E+02</pdfrwt>
<totfact> 0.25627288E+05</totfact>
</mgrwt>
</event>
<event>
 4    1  0.1893769E-002  0.4673750E+02  0.7818608E-02  0.1463777E+00
          1   -1    0    0    0  501  0.00000000000E+00  0.00000000000E+00  0.69056164882E+02  0.69056165066E+02  0.50400000000E-02 0. -1.
         -1   -1    0    0  501    0 -0.00000000000E+00 -0.00000000000E+00 -0.79080311043E+01  0.79080327104E+01  0.50400000000E-02 0. -1.
          2    1    1    2    0  502  0.15097212662E+02  0.17822297033E+02  0.29365920455E+02  0.37522225312E+02  0.25500000000E-02 0.  1.
         -2    1    1    2  502    0 -0.15097212662E+02 -0.17822297033E+02  0.31782213323E+02  0.39441972464E+02  0.25500000000E-02 0.  1.
<mgrwt>
<rscale>  0 0.46737495E+02</rscale>
<asrwt>0</asrwt>
<pdfrwt beam="1">  1        1 0.10624025E-01 0.46737495E+02</pdfrwt>
<pdfrwt beam="2">  1       -1 0.12166204E-02 0.46737495E+02</pdfrwt>
<totfact> 0.57210150E+05</totfact>
</mgrwt>
</event>
<event>
 4    1  0.1893769E-002  0.4256558E+02  0.7818608E-02  0.1490138E+00
          1   -1    0    0    0  501  0.00000000000E+00  0.00000000000E+00  0.35927172587E+00  0.35930707564E+00  0.50400000000E-02 0.  1.
         -1   -1    0    0  501    0 -0.00000000000E+00 -0.00000000000E+00 -0.12607028548E+04  0.12607028549E+04  0.50400000000E-02 0.  1.
          2    1    1    2    0  502 -0.88148435250E+01  0.18620814709E+02 -0.47195226219E+03  0.47240170830E+03  0.25500000000E-02 0. -1.
         -2    1    1    2  502    0  0.88148435250E+01 -0.18620814709E+02 -0.78839132093E+03  0.78866045364E+03  0.25500000000E-02 0. -1.
<mgrwt>
<rscale>  0 0.42565582E+02</rscale>
<asrwt>0</asrwt>
<pdfrwt beam="1">  1        1 0.55276303E-04 0.42565582E+02</pdfrwt>
<pdfrwt beam="2">  1       -1 0.19395075E+00 0.42565582E+02</pdfrwt>
<totfact> 0.12908334E+05</totfact>
</mgrwt>
</event>
<event>
 4    1  0.1893769E-002  0.8018000E+02  0.7818608E-02  0.1328541E+00
          1   -1    0    0    0  501  0.00000000000E+00  0.00000000000E+00  0.13365534236E+02  0.13365535186E+02  0.50400000000E-02 0. -1.
         -1   -1    0    0  501    0 -0.00000000000E+00 -0.00000000000E+00 -0.12025017663E+03  0.12025017674E+03  0.50400000000E-02 0. -1.
          2    1    1    2    0  502 -0.16000798138E+01  0.33088307613E+02 -0.15815602927E+02  0.36708713660E+02  0.25500000000E-02 0.  1.
         -2    1    1    2  502    0  0.16000798138E+01 -0.33088307613E+02 -0.91069039470E+02  0.96906998264E+02  0.25500000000E-02 0.  1.
<mgrwt>
<rscale>  0 0.80179996E+02</rscale>
<asrwt>0</asrwt>
<pdfrwt beam="1">  1        1 0.20562362E-02 0.80179996E+02</pdfrwt>
<pdfrwt beam="2">  1       -1 0.18500026E-01 0.80179996E+02</pdfrwt>
<totfact> 0.10931180E+05</totfact>
</mgrwt>
</event>
<event>
 4    1  0.1893769E-002  0.4798803E+02  0.7818608E-02  0.1456506E+00
          1   -1    0    0    0  501  0.00000000000E+00  0.00000000000E+00  0.14197955455E+02  0.14197956349E+02  0.50400000000E-02 0.  1.
         -1   -1    0    0  501    0 -0.00000000000E+00 -0.00000000000E+00 -0.40548989738E+02  0.40548990051E+02  0.50400000000E-02 0.  1.
          2    1    1    2    0  502 -0.19831879658E+02  0.12609338623E+02 -0.76552016681E+01  0.24716411357E+02  0.25500000000E-02 0. -1.
         -2    1    1    2  502    0  0.19831879658E+02 -0.12609338623E+02 -0.18695832615E+02  0.30030535043E+02  0.25500000000E-02 0. -1.
<mgrwt>
<rscale>  0 0.47988031E+02</rscale>
<asrwt>0</asrwt>
<pdfrwt beam="1">  1        1 0.21843009E-02 0.47988031E+02</pdfrwt>
<pdfrwt beam="2">  1       -1 0.62383062E-02 0.47988031E+02</pdfrwt>
<totfact> 0.46197076E+05</totfact>
</mgrwt>
</event>
<event>
 4    1  0.1893769E-002  0.6142833E+02  0.7818608E-02  0.1391934E+00
         -1   -1    0    0  501    0 -0.00000000000E+00  0.00000000000E+00  0.91002207734E+00  0.91003603382E+00  0.50400000000E-02 0. -1.
          1   -1    0    0    0  501  0.00000000000E+00 -0.00000000000E+00 -0.10366261757E+04  0.10366261757E+04  0.50400000000E-02 0. -1.
          2    1    1    2    0  502  0.11172041055E+02  0.23213756062E+02 -0.23539925614E+03  0.23680477776E+03  0.25500000000E-02 0. -1.
         -2    1    1    2  502    0 -0.11172041055E+02 -0.23213756062E+02 -0.80031689751E+03  0.80073143401E+03  0.25500000000E-02 0. -1.
<mgrwt>
<rscale>  0 0.61428331E+02</rscale>
<asrwt>0</asrwt>
<pdfrwt beam="2">  1        1 0.15948001E+00 0.61428331E+02</pdfrwt>
<pdfrwt beam="1">  1       -1 0.14000530E-03 0.61428331E+02</pdfrwt>
<totfact> 0.37473747E+05</totfact>
</mgrwt>
</event>
<event>
 4    1  0.1893769E-002  0.4117348E+02  0.7818608E-02  0.1499749E+00
          1   -1    0    0    0  501  0.00000000000E+00  0.00000000000E+00  0.32609206503E+03  0.32609206507E+03  0.50400000000E-02 0.  1.
         -1   -1    0    0  501    0 -0.00000000000E+00 -0.00000000000E+00 -0.12996708027E+01  0.12996805750E+01  0.50400000000E-02 0.  1.
          2    1    1    2    0  502  0.14932213556E+02 -0.14076433034E+02  0.17545453537E+03  0.17665053342E+03  0.25500000000E-02 0. -1.
         -2    1    1    2  502    0 -0.14932213556E+02  0.14076433034E+02  0.14933785886E+03  0.15074121223E+03  0.25500000000E-02 0. -1.
<mgrwt>
<rscale>  0 0.41173484E+02</rscale>
<asrwt>0</asrwt>
<pdfrwt beam="1">  1        1 0.50168020E-01 0.41173484E+02</pdfrwt>
<pdfrwt beam="2">  1       -1 0.19995007E-03 0.41173484E+02</pdfrwt>
<totfact> 0.98780111E+05</totfact>
</mgrwt>
</event>
<event>
 4    1  0.1893769E-002  0.1198118E+03  0.7818608E-02  0.1243408E+00
         -1   -1    0    0  501    0 -0.00000000000E+00  0.00000000000E+00  0.16472808303E+03  0.16472808311E+03  0.50400000000E-02 0.  1.
          1   -1    0    0    0  501  0.00000000000E+00 -0.00000000000E+00 -0.21785684832E+02  0.21785685415E+02  0.50400000000E-02 0.  1.
          2    1    1    2    0  502  0.32857054494E+02 -0.49375153881E+01 -0.61271953015E+01  0.33786204537E+02  0.25500000000E-02 0. -1.
         -2    1    1    2  502    0 -0.32857054494E+02  0.49375153881E+01  0.14906959350E+03  0.15272756399E+03  0.25500000000E-02 0. -1.
<mgrwt>
<rscale>  0 0.11981176E+03</rscale>
<asrwt>0</asrwt>
<pdfrwt beam="2">  1        1 0.33516440E-02 0.11981176E+03</pdfrwt>
<pdfrwt beam="1">  1       -1 0.25342781E-01 0.11981176E+03</pdfrwt>
<totfact> 0.35785087E+04</totfact>
</mgrwt>
</event>
<event>
 4    1  0.1893769E-002  0.4138416E+02  0.7818608E-02  0.1498266E+00
          1   -1    0    0    0  501  0.00000000000E+00  0.00000000000E+00  0.11802244824E+03  0.11802244835E+03  0.50400000000E-02 0. -1.
         -1   -1    0    0  501    0 -0.00000000000E+00 -0.00000000000E+00 -0.36278007155E+01  0.36278042165E+01  0.50400000000E-02 0. -1.
          2    1    1    2    0  502  0.20007745050E+02 -0.38518922510E+01  0.67802168101E+02  0.70797464231E+02  0.25500000000E-02 0.  1.
         -2    1    1    2  502    0 -0.20007745050E+02  0.38518922510E+01  0.46592479422E+02  0.50852788331E+02  0.25500000000E-02 0.  1.
<mgrwt>
<rscale>  0 0.41384158E+02</rscale>
<asrwt>0</asrwt>
<pdfrwt beam="1">  1        1 0.18157298E-01 0.41384158E+02</pdfrwt>
<pdfrwt beam="2">  1       -1 0.55812354E-03 0.41384158E+02</pdfrwt>
<totfact> 0.82732696E+05</totfact>
</mgrwt>
</event>
<event>
 4    1  0.1893769E-002  0.7603545E+02  0.7818608E-02  0.1340694E+00
         -1   -1    0    0  501    0 -0.00000000000E+00  0.00000000000E+00  0.36033351782E+03  0.36033351785E+03  0.50400000000E-02 0.  1.
          1   -1    0    0    0  501  0.00000000000E+00 -0.00000000000E+00 -0.40111366160E+01  0.40111397823E+01  0.50400000000E-02 0.  1.
          2    1    1    2    0  502 -0.28869597195E+02  0.63243656127E+01  0.29275335140E+03  0.29424135672E+03  0.25500000000E-02 0.  1.
         -2    1    1    2  502    0  0.28869597195E+02 -0.63243656127E+01  0.63569029800E+02  0.70103300913E+02  0.25500000000E-02 0.  1.
<mgrwt>
<rscale>  0 0.76035454E+02</rscale>
<asrwt>0</asrwt>
<pdfrwt beam="2">  1        1 0.61709807E-03 0.76035454E+02</pdfrwt>
<pdfrwt beam="1">  1       -1 0.55435937E-01 0.76035454E+02</pdfrwt>
<totfact> 0.89862308E+04</totfact>
</mgrwt>
</event>
<event>
 4    1  0.1893769E-002  0.6497784E+02  0.7818608E-02  0.1378055E+00
         -1   -1    0    0  501    0 -0.00000000000E+00  0.00000000000E+00  0.21326474408E+02  0.21326475004E+02  0.50400000000E-02 0.  1.
          1   -1    0    0    0  501  0.00000000000E+00 -0.00000000000E+00 -0.49493880614E+02  0.49493880871E+02  0.50400000000E-02 0.  1.
          2    1    1    2    0  502  0.10498457193E+01  0.31704972736E+02 -0.21730415953E+02  0.38451507853E+02  0.25500000000E-02 0. -1.
         -2    1    1    2  502    0 -0.10498457193E+01 -0.31704972736E+02 -0.64369902530E+01  0.32368848021E+02  0.25500000000E-02 0. -1.
<mgrwt>
<rscale>  0 0.64977843E+02</rscale>
<asrwt>0</asrwt>
<pdfrwt beam="2">  1        1 0.76144432E-02 0.64977843E+02</pdfrwt>
<pdfrwt beam="1">  1       -1 0.32809961E-02 0.64977843E+02</pdfrwt>
<totfact> 0.23546517E+05</totfact>
</mgrwt>
</event>
<event>
 4    1  0.1893769E-002  0.7298912E+02  0.7818608E-02  0.1350214E+00
         -1   -1    0    0  501    0 -0.00000000000E+00  0.00000000000E+00  0.32656968682E+03  0.32656968686E+03  0.50400000000E-02 0.  1.
          1   -1    0    0    0  501  0.00000000000E+00 -0.00000000000E+00 -0.40783100420E+01  0.40783131562E+01  0.50400000000E-02 0.  1.
          2    1    1    2    0  502  0.25865168829E+02 -0.32253811547E+01  0.45533522724E+02  0.52466291467E+02  0.25500000000E-02 0.  1.
         -2    1    1    2  502    0 -0.25865168829E+02  0.32253811547E+01  0.27695785406E+03  0.27818170855E+03  0.25500000000E-02 0.  1.
<mgrwt>
<rscale>  0 0.72989121E+02</rscale>
<asrwt>0</asrwt>
<pdfrwt beam="2">  1        1 0.62743254E-03 0.72989121E+02</pdfrwt>
<pdfrwt beam="1">  1       -1 0.50241492E-01 0.72989121E+02</pdfrwt>
<totfact> 0.10423785E+05</totfact>
</mgrwt>
</event>
<event>
 4    1  0.1893769E-002  0.5959912E+02  0.7818608E-02  0.1399522E+00
          1   -1    0    0    0  501  0.00000000000E+00  0.00000000000E+00  0.42940756657E+01  0.42940786235E+01  0.50400000000E-02 0.  1.
         -1   -1    0    0  501    0 -0.00000000000E+00 -0.00000000000E+00 -0.20679964999E+03  0.20679965006E+03  0.50400000000E-02 0.  1.
          2    1    1    2    0  502  0.27845604618E+02 -0.37523287340E+01 -0.66090507600E+02  0.71815129804E+02  0.25500000000E-02 0.  1.
         -2    1    1    2  502    0 -0.27845604618E+02  0.37523287340E+01 -0.13641506673E+03  0.13927859888E+03  0.25500000000E-02 0.  1.
<mgrwt>
<rscale>  0 0.59599116E+02</rscale>
<asrwt>0</asrwt>
<pdfrwt beam="1">  1        1 0.66062742E-03 0.59599116E+02</pdfrwt>
<pdfrwt beam="2">  1       -1 0.31815323E-01 0.59599116E+02</pdfrwt>
<totfact> 0.20471203E+05</totfact>
</mgrwt>
</event>
<event>
 4    1  0.1893769E-002  0.5327258E+02  0.7818608E-02  0.1428449E+00
         -1   -1    0    0  501    0 -0.00000000000E+00  0.00000000000E+00  0.33737146521E+03  0.33737146524E+03  0.50400000000E-02 0. -1.
          1   -1    0    0    0  501  0.00000000000E+00 -0.00000000000E+00 -0.21029964046E+01  0.21030024440E+01  0.50400000000E-02 0. -1.
          2    1    1    2    0  502 -0.18368736413E+02 -0.19108603409E+02  0.15084345926E+03  0.15315449197E+03  0.25500000000E-02 0.  1.
         -2    1    1    2  502    0  0.18368736413E+02  0.19108603409E+02  0.18442500954E+03  0.18631997572E+03  0.25500000000E-02 0.  1.
<mgrwt>
<rscale>  0 0.53272582E+02</rscale>
<asrwt>0</asrwt>
<pdfrwt beam="2">  1        1 0.32353861E-03 0.53272582E+02</pdfrwt>
<pdfrwt beam="1">  1       -1 0.51903265E-01 0.53272582E+02</pdfrwt>
<totfact> 0.22835077E+05</totfact>
</mgrwt>
</event>
<event>
 4    1  0.1893769E-002  0.7419812E+02  0.7818608E-02  0.1346372E+00
         -1   -1    0    0  501    0 -0.00000000000E+00  0.00000000000E+00  0.75308211147E+02  0.75308211315E+02  0.50400000000E-02 0. -1.
          1   -1    0    0    0  501  0.00000000000E+00 -0.00000000000E+00 -0.18276096063E+02  0.18276096758E+02  0.50400000000E-02 0. -1.
          2    1    1    2    0  502 -0.15083293367E+02 -0.15159368664E+02 -0.97201232817E+01  0.23490274587E+02  0.25500000000E-02 0.  1.
         -2    1    1    2  502    0  0.15083293367E+02  0.15159368664E+02  0.66752238365E+02  0.70094033486E+02  0.25500000000E-02 0.  1.
<mgrwt>
<rscale>  0 0.74198117E+02</rscale>
<asrwt>0</asrwt>
<pdfrwt beam="2">  1        1 0.28117071E-02 0.74198117E+02</pdfrwt>
<pdfrwt beam="1">  1       -1 0.11585879E-01 0.74198117E+02</pdfrwt>
<totfact> 0.14452744E+05</totfact>
</mgrwt>
</event>
<event>
 4    1  0.1893769E-002  0.4741201E+02  0.7818608E-02  0.1459822E+00
          1   -1    0    0    0  501  0.00000000000E+00  0.00000000000E+00  0.49786913450E+01  0.49786938960E+01  0.50400000000E-02 0.  1.
         -1   -1    0    0  501    0 -0.00000000000E+00 -0.00000000000E+00 -0.11287594608E+03  0.11287594619E+03  0.50400000000E-02 0.  1.
          2    1    1    2    0  502  0.22120111189E+02 -0.84802121353E+01 -0.51779701964E+02  0.56941644328E+02  0.25500000000E-02 0. -1.
         -2    1    1    2  502    0 -0.22120111189E+02  0.84802121353E+01 -0.56117552768E+02  0.60912995757E+02  0.25500000000E-02 0. -1.
<mgrwt>
<rscale>  0 0.47412009E+02</rscale>
<asrwt>0</asrwt>
<pdfrwt beam="1">  1        1 0.76595281E-03 0.47412009E+02</pdfrwt>
<pdfrwt beam="2">  1       -1 0.17365528E-01 0.47412009E+02</pdfrwt>
<totfact> 0.41555181E+05</totfact>
</mgrwt>
</event>
<event>
 4    1  0.1893769E-002  0.9799049E+02  0.7818608E-02  0.1284579E+00
         -1   -1    0    0  501    0 -0.00000000000E+00  0.00000000000E+00  0.49092680206E+02  0.49092680465E+02  0.50400000000E-02 0.  1.
          1   -1    0    0    0  501  0.00000000000E+00 -0.00000000000E+00 -0.48897999783E+02  0.48898000043E+02  0.50400000000E-02 0.  1.
          2    1    1    2    0  502  0.25698356944E+02 -0.17968654483E+02  0.37743872395E+02  0.49070133517E+02  0.25500000000E-02 0. -1.
         -2    1    1    2  502    0 -0.25698356944E+02  0.17968654483E+02 -0.37549191972E+02  0.48920546990E+02  0.25500000000E-02 0. -1.
<mgrwt>
<rscale>  0 0.97990487E+02</rscale>
<asrwt>0</asrwt>
<pdfrwt beam="2">  1        1 0.75227692E-02 0.97990487E+02</pdfrwt>
<pdfrwt beam="1">  1       -1 0.75527201E-02 0.97990487E+02</pdfrwt>
<totfact> 0.76282812E+04</totfact>
</mgrwt>
</event>
<event>
 4    1  0.1893769E-002  0.9847407E+02  0.7818608E-02  0.1283538E+00
         -1   -1    0    0  501    0 -0.00000000000E+00  0.00000000000E+00  0.11771049415E+02  0.11771050494E+02  0.50400000000E-02 0.  1.
          1   -1    0    0    0  501  0.00000000000E+00 -0.00000000000E+00 -0.20595322718E+03  0.20595322725E+03  0.50400000000E-02 0.  1.
          2    1    1    2    0  502 -0.34199099612E+02 -0.17311035689E+02 -0.16541845590E+03  0.16980140144E+03  0.25500000000E-02 0. -1.
         -2    1    1    2  502    0  0.34199099612E+02  0.17311035689E+02 -0.28763721867E+02  0.47922876302E+02  0.25500000000E-02 0. -1.
<mgrwt>
<rscale>  0 0.98474072E+02</rscale>
<asrwt>0</asrwt>
<pdfrwt beam="2">  1        1 0.31685109E-01 0.98474072E+02</pdfrwt>
<pdfrwt beam="1">  1       -1 0.18109309E-02 0.98474072E+02</pdfrwt>
<totfact> 0.96780570E+04</totfact>
</mgrwt>
</event>
<event>
 4    1  0.1893769E-002  0.1353163E+03  0.7818608E-02  0.1219774E+00
         -1   -1    0    0  501    0 -0.00000000000E+00  0.00000000000E+00  0.10605217894E+02  0.10605219092E+02  0.50400000000E-02 0. -1.
          1   -1    0    0    0  501  0.00000000000E+00 -0.00000000000E+00 -0.43163915549E+03  0.43163915552E+03  0.50400000000E-02 0. -1.
          2    1    1    2    0  502  0.48942297113E+02  0.15140466450E+02 -0.66083360186E+02  0.83615744158E+02  0.25500000000E-02 0. -1.
         -2    1    1    2  502    0 -0.48942297113E+02 -0.15140466450E+02 -0.35495057741E+03  0.35862863045E+03  0.25500000000E-02 0. -1.
<mgrwt>
<rscale>  0 0.13531633E+03</rscale>
<asrwt>0</asrwt>
<pdfrwt beam="2">  1        1 0.66406010E-01 0.13531633E+03</pdfrwt>
<pdfrwt beam="1">  1       -1 0.16315724E-02 0.13531633E+03</pdfrwt>
<totfact> 0.46887913E+04</totfact>
</mgrwt>
</event>
<event>
 4    1  0.1893769E-002  0.1194960E+03  0.7818608E-02  0.1243931E+00
          1   -1    0    0    0  501  0.00000000000E+00  0.00000000000E+00  0.80939592171E+03  0.80939592173E+03  0.50400000000E-02 0.  1.
         -1   -1    0    0  501    0 -0.00000000000E+00 -0.00000000000E+00 -0.44104741987E+01  0.44104770784E+01  0.50400000000E-02 0.  1.
          2    1    1    2    0  502  0.33283555108E+02 -0.15263579957E+02  0.80958133638E+02  0.88853763692E+02  0.25500000000E-02 0. -1.
         -2    1    1    2  502    0 -0.33283555108E+02  0.15263579957E+02  0.72402731387E+03  0.72495263511E+03  0.25500000000E-02 0. -1.
<mgrwt>
<rscale>  0 0.11949596E+03</rscale>
<asrwt>0</asrwt>
<pdfrwt beam="1">  1        1 0.12452246E+00 0.11949596E+03</pdfrwt>
<pdfrwt beam="2">  1       -1 0.67853466E-03 0.11949596E+03</pdfrwt>
<totfact> 0.68407648E+04</totfact>
</mgrwt>
</event>
<event>
 4    1  0.1893769E-002  0.9153531E+02  0.7818608E-02  0.1299176E+00
         -1   -1    0    0  501    0 -0.00000000000E+00  0.00000000000E+00  0.15676134748E+01  0.15676215768E+01  0.50400000000E-02 0. -1.
          1   -1    0    0    0  501  0.00000000000E+00 -0.00000000000E+00 -0.13362175915E+04  0.13362175915E+04  0.50400000000E-02 0. -1.
          2    1    1    2    0  502  0.14306771325E+02 -0.33583952063E+02 -0.10707913318E+04  0.10714133851E+04  0.25500000000E-02 0. -1.
         -2    1    1    2  502    0 -0.14306771325E+02  0.33583952063E+02 -0.26385864625E+03  0.26637182800E+03  0.25500000000E-02 0. -1.
<mgrwt>
<rscale>  0 0.91535307E+02</rscale>
<asrwt>0</asrwt>
<pdfrwt beam="2">  1        1 0.20557103E+00 0.91535307E+02</pdfrwt>
<pdfrwt beam="1">  1       -1 0.24117300E-03 0.91535307E+02</pdfrwt>
<totfact> 0.11882742E+05</totfact>
</mgrwt>
</event>
<event>
 4    1  0.1893769E-002  0.7861676E+02  0.7818608E-02  0.1333023E+00
         -1   -1    0    0  501    0 -0.00000000000E+00  0.00000000000E+00  0.52020693455E+01  0.52020717870E+01  0.50400000000E-02 0.  1.
          1   -1    0    0    0  501  0.00000000000E+00 -0.00000000000E+00 -0.29702571114E+03  0.29702571119E+03  0.50400000000E-02 0.  1.
          2    1    1    2    0  502  0.72424333736E-01  0.36921032016E+02 -0.19777177272E+03  0.20118857309E+03  0.25500000000E-02 0. -1.
         -2    1    1    2  502    0 -0.72424333736E-01 -0.36921032016E+02 -0.94051869079E+02  0.10103920989E+03  0.25500000000E-02 0. -1.
<mgrwt>
<rscale>  0 0.78616760E+02</rscale>
<asrwt>0</asrwt>
<pdfrwt beam="2">  1        1 0.45696250E-01 0.78616760E+02</pdfrwt>
<pdfrwt beam="1">  1       -1 0.80031879E-03 0.78616760E+02</pdfrwt>
<totfact> 0.18921994E+05</totfact>
</mgrwt>
</event>
<event>
 4    1  0.1893769E-002  0.4545220E+02  0.7818608E-02  0.1471538E+00
          1   -1    0    0    0  501  0.00000000000E+00  0.00000000000E+00  0.17227851065E+01  0.17227924788E+01  0.50400000000E-02 0. -1.
         -1   -1    0    0  501    0 -0.00000000000E+00 -0.00000000000E+00 -0.29979046052E+03  0.29979046056E+03  0.50400000000E-02 0. -1.
          2    1    1    2    0  502  0.19689713565E+02 -0.69886788176E+01 -0.20834801932E+03  0.20939298845E+03  0.25500000000E-02 0.  1.
         -2    1    1    2  502    0 -0.19689713565E+02  0.69886788176E+01 -0.89719656097E+02  0.92120264592E+02  0.25500000000E-02 0.  1.
<mgrwt>
<rscale>  0 0.45452202E+02</rscale>
<asrwt>0</asrwt>
<pdfrwt beam="1">  1        1 0.26504467E-03 0.45452202E+02</pdfrwt>
<pdfrwt beam="2">  1       -1 0.46121568E-01 0.45452202E+02</pdfrwt>
<totfact> 0.35492459E+05</totfact>
</mgrwt>
</event>
<event>
 4    1  0.1893769E-002  0.5411958E+02  0.7818608E-02  0.1424309E+00
         -1   -1    0    0  501    0 -0.00000000000E+00  0.00000000000E+00  0.43423048253E+01  0.43423077502E+01  0.50400000000E-02 0. -1.
          1   -1    0    0    0  501  0.00000000000E+00 -0.00000000000E+00 -0.16862748575E+03  0.16862748583E+03  0.50400000000E-02 0. -1.
          2    1    1    2    0  502 -0.22246698881E+02  0.51773525272E+01 -0.12851438283E+03  0.13052841526E+03  0.25500000000E-02 0.  1.
         -2    1    1    2  502    0  0.22246698881E+02 -0.51773525272E+01 -0.35770798096E+02  0.42441378314E+02  0.25500000000E-02 0.  1.
<mgrwt>
<rscale>  0 0.54119579E+02</rscale>
<asrwt>0</asrwt>
<pdfrwt beam="2">  1        1 0.25942685E-01 0.54119579E+02</pdfrwt>
<pdfrwt beam="1">  1       -1 0.66804725E-03 0.54119579E+02</pdfrwt>
<totfact> 0.44727892E+05</totfact>
</mgrwt>
</event>
<event>
 4    1  0.1893769E-002  0.4649403E+02  0.7818608E-02  0.1465225E+00
         -1   -1    0    0  501    0 -0.00000000000E+00  0.00000000000E+00  0.31178532618E+03  0.31178532622E+03  0.50400000000E-02 0.  1.
          1   -1    0    0    0  501  0.00000000000E+00 -0.00000000000E+00 -0.17333165361E+01  0.17333238635E+01  0.50400000000E-02 0.  1.
          2    1    1    2    0  502 -0.20526378736E+02 -0.88984197445E+01  0.11242641255E+03  0.11463076526E+03  0.25500000000E-02 0. -1.
         -2    1    1    2  502    0  0.20526378736E+02  0.88984197445E+01  0.19762559710E+03  0.19888788483E+03  0.25500000000E-02 0. -1.
<mgrwt>
<rscale>  0 0.46494035E+02</rscale>
<asrwt>0</asrwt>
<pdfrwt beam="2">  1        1 0.26666449E-03 0.46494035E+02</pdfrwt>
<pdfrwt beam="1">  1       -1 0.47967003E-01 0.46494035E+02</pdfrwt>
<totfact> 0.33054542E+05</totfact>
</mgrwt>
</event>
<event>
 4    1  0.1893769E-002  0.9548785E+02  0.7818608E-02  0.1290081E+00
         -1   -1    0    0  501    0 -0.00000000000E+00  0.00000000000E+00  0.55153733246E+01  0.55153756274E+01  0.50400000000E-02 0.  1.
          1   -1    0    0    0  501  0.00000000000E+00 -0.00000000000E+00 -0.41329601406E+03  0.41329601409E+03  0.50400000000E-02 0.  1.
          2    1    1    2    0  502 -0.15690053220E+02  0.21481741161E+02 -0.37778025749E+03  0.37871567954E+03  0.25500000000E-02 0.  1.
         -2    1    1    2  502    0  0.15690053220E+02 -0.21481741161E+02 -0.30000383244E+02  0.40095710177E+02  0.25500000000E-02 0.  1.
<mgrwt>
<rscale>  0 0.95487848E+02</rscale>
<asrwt>0</asrwt>
<pdfrwt beam="2">  1        1 0.63583978E-01 0.95487848E+02</pdfrwt>
<pdfrwt beam="1">  1       -1 0.84851948E-03 0.95487848E+02</pdfrwt>
<totfact> 0.11991438E+05</totfact>
</mgrwt>
</event>
<event>
 4    1  0.1893769E-002  0.5546866E+02  0.7818608E-02  0.1417895E+00
         -1   -1    0    0  501    0 -0.00000000000E+00  0.00000000000E+00  0.41356943549E+02  0.41356943856E+02  0.50400000000E-02 0. -1.
          1   -1    0    0    0  501  0.00000000000E+00 -0.00000000000E+00 -0.18598887430E+02  0.18598888113E+02  0.50400000000E-02 0. -1.
          2    1    1    2    0  502 -0.19934442174E+02 -0.10935496556E+02 -0.57873524116E+01  0.23461895152E+02  0.25500000000E-02 0. -1.
         -2    1    1    2  502    0  0.19934442174E+02  0.10935496556E+02  0.28545408531E+02  0.36493936817E+02  0.25500000000E-02 0. -1.
<mgrwt>
<rscale>  0 0.55468664E+02</rscale>
<asrwt>0</asrwt>
<pdfrwt beam="2">  1        1 0.28613674E-02 0.55468664E+02</pdfrwt>
<pdfrwt beam="1">  1       -1 0.63626068E-02 0.55468664E+02</pdfrwt>
<totfact> 0.32307475E+05</totfact>
</mgrwt>
</event>
<event>
 4    1  0.1893769E-002  0.6414116E+02  0.7818608E-02  0.1381232E+00
          1   -1    0    0    0  501  0.00000000000E+00  0.00000000000E+00  0.21519262866E+02  0.21519263456E+02  0.50400000000E-02 0. -1.
         -1   -1    0    0  501    0 -0.00000000000E+00 -0.00000000000E+00 -0.47795408377E+02  0.47795408642E+02  0.50400000000E-02 0. -1.
          2    1    1    2    0  502 -0.29915358151E+02  0.44480524196E+01 -0.16095123039E+01  0.30287032868E+02  0.25500000000E-02 0. -1.
         -2    1    1    2  502    0  0.29915358151E+02 -0.44480524196E+01 -0.24666633207E+02  0.39027639230E+02  0.25500000000E-02 0. -1.
<mgrwt>
<rscale>  0 0.64141156E+02</rscale>
<asrwt>0</asrwt>
<pdfrwt beam="1">  1        1 0.33106559E-02 0.64141156E+02</pdfrwt>
<pdfrwt beam="2">  1       -1 0.73531398E-02 0.64141156E+02</pdfrwt>
<totfact> 0.22167966E+05</totfact>
</mgrwt>
</event>
<event>
 4    1  0.1893769E-002  0.5184311E+02  0.7818608E-02  0.1435646E+00
          1   -1    0    0    0  501  0.00000000000E+00  0.00000000000E+00  0.10465621259E+04  0.10465621259E+04  0.50400000000E-02 0. -1.
         -1   -1    0    0  501    0 -0.00000000000E+00 -0.00000000000E+00 -0.64202273580E+00  0.64204251798E+00  0.50400000000E-02 0. -1.
          2    1    1    2    0  502 -0.12583798920E+02  0.18739900370E+02  0.78036774298E+03  0.78069414635E+03  0.25500000000E-02 0. -1.
         -2    1    1    2  502    0  0.12583798920E+02 -0.18739900370E+02  0.26555236018E+03  0.26651002207E+03  0.25500000000E-02 0. -1.
<mgrwt>
<rscale>  0 0.51843111E+02</rscale>
<asrwt>0</asrwt>
<pdfrwt beam="1">  1        1 0.16101088E+00 0.51843111E+02</pdfrwt>
<pdfrwt beam="2">  1       -1 0.98773439E-04 0.51843111E+02</pdfrwt>
<totfact> 0.57252518E+05</totfact>
</mgrwt>
</event>
<event>
 4    1  0.1893769E-002  0.5322882E+02  0.7818608E-02  0.1428665E+00
         -1   -1    0    0  501    0 -0.00000000000E+00  0.00000000000E+00  0.68740009149E+01  0.68740027625E+01  0.50400000000E-02 0. -1.
          1   -1    0    0    0  501  0.00000000000E+00 -0.00000000000E+00 -0.10304430321E+03  0.10304430334E+03  0.50400000000E-02 0. -1.
          2    1    1    2    0  502  0.17600156719E+02 -0.11561607206E+02 -0.81694211427E+02  0.84364568777E+02  0.25500000000E-02 0. -1.
         -2    1    1    2  502    0 -0.17600156719E+02  0.11561607206E+02 -0.14476090872E+02  0.25553737323E+02  0.25500000000E-02 0. -1.
<mgrwt>
<rscale>  0 0.53228817E+02</rscale>
<asrwt>0</asrwt>
<pdfrwt beam="2">  1        1 0.15852969E-01 0.53228817E+02</pdfrwt>
<pdfrwt beam="1">  1       -1 0.10575388E-02 0.53228817E+02</pdfrwt>
<totfact> 0.43264756E+05</totfact>
</mgrwt>
</event>
<event>
 4    1  0.1893769E-002  0.1154187E+03  0.7818608E-02  0.1250852E+00
          1   -1    0    0    0  501  0.00000000000E+00  0.00000000000E+00  0.46382841224E+03  0.46382841227E+03  0.50400000000E-02 0.  1.
         -1   -1    0    0  501    0 -0.00000000000E+00 -0.00000000000E+00 -0.71801701559E+01  0.71801719248E+01  0.50400000000E-02 0.  1.
          2    1    1    2    0  502  0.51417593010E+02 -0.26076819366E+02  0.21784179634E+03  0.22534155768E+03  0.25500000000E-02 0. -1.
         -2    1    1    2  502    0 -0.51417593010E+02  0.26076819366E+02  0.23880644574E+03  0.24566702651E+03  0.25500000000E-02 0. -1.
<mgrwt>
<rscale>  0 0.11541867E+03</rscale>
<asrwt>0</asrwt>
<pdfrwt beam="1">  1        1 0.71358186E-01 0.11541867E+03</pdfrwt>
<pdfrwt beam="2">  1       -1 0.11046422E-02 0.11541867E+03</pdfrwt>
<totfact> 0.73274014E+04</totfact>
</mgrwt>
</event>
<event>
 4    1  0.1893769E-002  0.5603016E+02  0.7818608E-02  0.1415289E+00
          1   -1    0    0    0  501  0.00000000000E+00  0.00000000000E+00  0.24517829715E+04  0.24517829715E+04  0.50400000000E-02 0.  1.
         -1   -1    0    0  501    0 -0.00000000000E+00 -0.00000000000E+00 -0.32009194521E+00  0.32013162135E+00  0.50400000000E-02 0.  1.
          2    1    1    2    0  502  0.75081747810E+01 -0.24924279731E+02  0.16789628748E+04  0.16791646516E+04  0.25500000000E-02 0.  1.
         -2    1    1    2  502    0 -0.75081747810E+01  0.24924279731E+02  0.77250000481E+03  0.77293845153E+03  0.25500000000E-02 0.  1.
<mgrwt>
<rscale>  0 0.56030157E+02</rscale>
<asrwt>0</asrwt>
<pdfrwt beam="1">  1        1 0.37720398E+00 0.56030157E+02</pdfrwt>
<pdfrwt beam="2">  1       -1 0.49247106E-04 0.56030157E+02</pdfrwt>
<totfact> 0.19481091E+05</totfact>
</mgrwt>
</event>
<event>
 4    1  0.1893769E-002  0.4541727E+02  0.7818608E-02  0.1471753E+00
         -1   -1    0    0  501    0 -0.00000000000E+00  0.00000000000E+00  0.39271439663E+02  0.39271439987E+02  0.50400000000E-02 0. -1.
          1   -1    0    0    0  501  0.00000000000E+00 -0.00000000000E+00 -0.13131226448E+02  0.13131227415E+02  0.50400000000E-02 0. -1.
          2    1    1    2    0  502 -0.10604833196E+02 -0.19804512372E+02  0.16897017512E+02  0.28110325589E+02  0.25500000000E-02 0. -1.
         -2    1    1    2  502    0  0.10604833196E+02  0.19804512372E+02  0.92431957033E+01  0.24292341812E+02  0.25500000000E-02 0. -1.
<mgrwt>
<rscale>  0 0.45417274E+02</rscale>
<asrwt>0</asrwt>
<pdfrwt beam="2">  1        1 0.20201888E-02 0.45417274E+02</pdfrwt>
<pdfrwt beam="1">  1       -1 0.60417600E-02 0.45417274E+02</pdfrwt>
<totfact> 0.52995514E+05</totfact>
</mgrwt>
</event>
<event>
 4    1  0.1893769E-002  0.4311243E+02  0.7818608E-02  0.1486481E+00
         -1   -1    0    0  501    0 -0.00000000000E+00  0.00000000000E+00  0.26439567773E+00  0.26444371046E+00  0.50400000000E-02 0. -1.
          1   -1    0    0    0  501  0.00000000000E+00 -0.00000000000E+00 -0.17573216588E+04  0.17573216588E+04  0.50400000000E-02 0. -1.
          2    1    1    2    0  502  0.17306572422E+02 -0.10216199834E+02 -0.11963642381E+04  0.11965330244E+04  0.25500000000E-02 0. -1.
         -2    1    1    2  502    0 -0.17306572422E+02  0.10216199834E+02 -0.56069302505E+03  0.56105307818E+03  0.25500000000E-02 0. -1.
<mgrwt>
<rscale>  0 0.43112433E+02</rscale>
<asrwt>0</asrwt>
<pdfrwt beam="2">  1        1 0.27034783E+00 0.43112433E+02</pdfrwt>
<pdfrwt beam="1">  1       -1 0.40681361E-04 0.43112433E+02</pdfrwt>
<totfact> 0.64298237E+05</totfact>
</mgrwt>
</event>
<event>
 4    1  0.1893769E-002  0.4026094E+02  0.7818608E-02  0.1506300E+00
         -1   -1    0    0  501    0 -0.00000000000E+00  0.00000000000E+00  0.20244559967E+02  0.20244560594E+02  0.50400000000E-02 0.  1.
          1   -1    0    0    0  501  0.00000000000E+00 -0.00000000000E+00 -0.20017021647E+02  0.20017022281E+02  0.50400000000E-02 0.  1.
          2    1    1    2    0  502  0.19987476264E+02  0.12418103729E+01  0.21618530319E+01  0.20142366183E+02  0.25500000000E-02 0. -1.
         -2    1    1    2  502    0 -0.19987476264E+02 -0.12418103729E+01 -0.19343147121E+01  0.20119216693E+02  0.25500000000E-02 0. -1.
<mgrwt>
<rscale>  0 0.40260940E+02</rscale>
<asrwt>0</asrwt>
<pdfrwt beam="2">  1        1 0.30795419E-02 0.40260940E+02</pdfrwt>
<pdfrwt beam="1">  1       -1 0.31145478E-02 0.40260940E+02</pdfrwt>
<totfact> 0.74856337E+05</totfact>
</mgrwt>
</event>
<event>
 4    1  0.1893769E-002  0.5014667E+02  0.7818608E-02  0.1444552E+00
          1   -1    0    0    0  501  0.00000000000E+00  0.00000000000E+00  0.14065450241E+03  0.14065450250E+03  0.50400000000E-02 0. -1.
         -1   -1    0    0  501    0 -0.00000000000E+00 -0.00000000000E+00 -0.44696179684E+01  0.44696208100E+01  0.50400000000E-02 0. -1.
          2    1    1    2    0  502  0.91684383369E+00  0.23810014705E+02  0.90679442348E+02  0.93757765939E+02  0.25500000000E-02 0. -1.
         -2    1    1    2  502    0 -0.91684383369E+00 -0.23810014705E+02  0.45505442089E+02  0.51366357366E+02  0.25500000000E-02 0. -1.
<mgrwt>
<rscale>  0 0.50146669E+02</rscale>
<asrwt>0</asrwt>
<pdfrwt beam="1">  1        1 0.21639156E-01 0.50146669E+02</pdfrwt>
<pdfrwt beam="2">  1       -1 0.68763371E-03 0.50146669E+02</pdfrwt>
<totfact> 0.52655069E+05</totfact>
</mgrwt>
</event>
<event>
 4    1  0.1893769E-002  0.1890515E+03  0.7818608E-02  0.1159320E+00
         -1   -1    0    0  501    0 -0.00000000000E+00  0.00000000000E+00  0.20369501597E+03  0.20369501603E+03  0.50400000000E-02 0.  1.
          1   -1    0    0    0  501  0.00000000000E+00 -0.00000000000E+00 -0.43865191942E+02  0.43865192231E+02  0.50400000000E-02 0.  1.
          2    1    1    2    0  502  0.63457694330E+02  0.53486677170E+02  0.13916702192E+03  0.16203445189E+03  0.25500000000E-02 0.  1.
         -2    1    1    2  502    0 -0.63457694330E+02 -0.53486677170E+02  0.20662802104E+02  0.85525756364E+02  0.25500000000E-02 0.  1.
<mgrwt>
<rscale>  0 0.18905154E+03</rscale>
<asrwt>0</asrwt>
<pdfrwt beam="2">  1        1 0.67484911E-02 0.18905154E+03</pdfrwt>
<pdfrwt beam="1">  1       -1 0.31337695E-01 0.18905154E+03</pdfrwt>
<totfact> 0.10055093E+04</totfact>
</mgrwt>
</event>
<event>
 4    1  0.1893769E-002  0.4576914E+02  0.7818608E-02  0.1469596E+00
         -1   -1    0    0  501    0 -0.00000000000E+00  0.00000000000E+00  0.36124281911E+03  0.36124281915E+03  0.50400000000E-02 0. -1.
          1   -1    0    0    0  501  0.00000000000E+00 -0.00000000000E+00 -0.14497230832E+01  0.14497318440E+01  0.50400000000E-02 0. -1.
          2    1    1    2    0  502  0.52163375340E+00 -0.22802577818E+02  0.19466652518E+03  0.19599817776E+03  0.25500000000E-02 0. -1.
         -2    1    1    2  502    0 -0.52163375340E+00  0.22802577818E+02  0.16512657086E+03  0.16669437323E+03  0.25500000000E-02 0. -1.
<mgrwt>
<rscale>  0 0.45769145E+02</rscale>
<asrwt>0</asrwt>
<pdfrwt beam="2">  1        1 0.22303497E-03 0.45769145E+02</pdfrwt>
<pdfrwt beam="1">  1       -1 0.55575826E-01 0.45769145E+02</pdfrwt>
<totfact> 0.32252516E+05</totfact>
</mgrwt>
</event>
<event>
 4    1  0.1893769E-002  0.5523417E+02  0.7818608E-02  0.1418995E+00
         -1   -1    0    0  501    0 -0.00000000000E+00  0.00000000000E+00  0.43999858537E+00  0.44002744997E+00  0.50400000000E-02 0.  1.
          1   -1    0    0    0  501  0.00000000000E+00 -0.00000000000E+00 -0.17333652277E+04  0.17333652277E+04  0.50400000000E-02 0.  1.
          2    1    1    2    0  502  0.15045304756E+02 -0.21894356950E+02 -0.62951588308E+03  0.63007616295E+03  0.25500000000E-02 0. -1.
         -2    1    1    2  502    0 -0.15045304756E+02  0.21894356950E+02 -0.11034093460E+04  0.11037290922E+04  0.25500000000E-02 0. -1.
<mgrwt>
<rscale>  0 0.55234166E+02</rscale>
<asrwt>0</asrwt>
<pdfrwt beam="2">  1        1 0.26666611E+00 0.55234166E+02</pdfrwt>
<pdfrwt beam="1">  1       -1 0.67695699E-04 0.55234166E+02</pdfrwt>
<totfact> 0.35184188E+05</totfact>
</mgrwt>
</event>
<event>
 4    1  0.1893769E-002  0.5456838E+02  0.7818608E-02  0.1422151E+00
          1   -1    0    0    0  501  0.00000000000E+00  0.00000000000E+00  0.10063361707E+01  0.10063487915E+01  0.50400000000E-02 0.  1.
         -1   -1    0    0  501    0 -0.00000000000E+00 -0.00000000000E+00 -0.73973517081E+03  0.73973517083E+03  0.50400000000E-02 0.  1.
          2    1    1    2    0  502  0.11348136220E+02 -0.18018818781E+02 -0.60091663432E+03  0.60129382122E+03  0.25500000000E-02 0.  1.
         -2    1    1    2  502    0 -0.11348136220E+02  0.18018818781E+02 -0.13781220032E+03  0.13944769841E+03  0.25500000000E-02 0.  1.
<mgrwt>
<rscale>  0 0.54568377E+02</rscale>
<asrwt>0</asrwt>
<pdfrwt beam="1">  1        1 0.15482251E-03 0.54568377E+02</pdfrwt>
<pdfrwt beam="2">  1       -1 0.11380498E+00 0.54568377E+02</pdfrwt>
<totfact> 0.13111889E+05</totfact>
</mgrwt>
</event>
<event>
 4    1  0.1893769E-002  0.6454619E+02  0.7818608E-02  0.1379687E+00
         -1   -1    0    0  501    0 -0.00000000000E+00  0.00000000000E+00  0.12127171406E+04  0.12127171406E+04  0.50400000000E-02 0.  1.
          1   -1    0    0    0  501  0.00000000000E+00 -0.00000000000E+00 -0.85885137915E+00  0.85886616715E+00  0.50400000000E-02 0.  1.
          2    1    1    2    0  502 -0.20426841031E+02 -0.24117615731E+02  0.72869918824E+03  0.72938427606E+03  0.25500000000E-02 0. -1.
         -2    1    1    2  502    0  0.20426841031E+02  0.24117615731E+02  0.48315910097E+03  0.48419173070E+03  0.25500000000E-02 0. -1.
<mgrwt>
<rscale>  0 0.64546193E+02</rscale>
<asrwt>0</asrwt>
<pdfrwt beam="2">  1        1 0.13213207E-03 0.64546193E+02</pdfrwt>
<pdfrwt beam="1">  1       -1 0.18657194E+00 0.64546193E+02</pdfrwt>
<totfact> 0.48443940E+04</totfact>
</mgrwt>
</event>
<event>
 4    1  0.1893769E-002  0.4100561E+02  0.7818608E-02  0.1500939E+00
         -1   -1    0    0  501    0 -0.00000000000E+00  0.00000000000E+00  0.23076680322E+01  0.23076735359E+01  0.50400000000E-02 0.  1.
          1   -1    0    0    0  501  0.00000000000E+00 -0.00000000000E+00 -0.18215990962E+03  0.18215990969E+03  0.50400000000E-02 0.  1.
          2    1    1    2    0  502 -0.81695543368E+01 -0.18768469895E+02 -0.84664444353E+02  0.87103761253E+02  0.25500000000E-02 0.  1.
         -2    1    1    2  502    0  0.81695543368E+01  0.18768469895E+02 -0.95187797233E+02  0.97363821971E+02  0.25500000000E-02 0.  1.
<mgrwt>
<rscale>  0 0.41005615E+02</rscale>
<asrwt>0</asrwt>
<pdfrwt beam="2">  1        1 0.28024591E-01 0.41005615E+02</pdfrwt>
<pdfrwt beam="1">  1       -1 0.35502642E-03 0.41005615E+02</pdfrwt>
<totfact> 0.90381621E+05</totfact>
</mgrwt>
</event>
<event>
 4    1  0.1893769E-002  0.4086884E+02  0.7818608E-02  0.1501913E+00
          1   -1    0    0    0  501  0.00000000000E+00  0.00000000000E+00  0.10978977919E+03  0.10978977931E+03  0.50400000000E-02 0.  1.
         -1   -1    0    0  501    0 -0.00000000000E+00 -0.00000000000E+00 -0.38033172350E+01  0.38033205744E+01  0.50400000000E-02 0.  1.
          2    1    1    2    0  502 -0.46960960308E+01  0.19724776202E+02  0.60049672377E+02  0.63380464444E+02  0.25500000000E-02 0.  1.
         -2    1    1    2  502    0  0.46960960308E+01 -0.19724776202E+02  0.45936789580E+02  0.50212635438E+02  0.25500000000E-02 0.  1.
<mgrwt>
<rscale>  0 0.40868842E+02</rscale>
<asrwt>0</asrwt>
<pdfrwt beam="1">  1        1 0.16890736E-01 0.40868842E+02</pdfrwt>
<pdfrwt beam="2">  1       -1 0.58512598E-03 0.40868842E+02</pdfrwt>
<totfact> 0.84484361E+05</totfact>
</mgrwt>
</event>
<event>
 4    1  0.1893769E-002  0.9318945E+02  0.7818608E-02  0.1295307E+00
         -1   -1    0    0  501    0 -0.00000000000E+00  0.00000000000E+00  0.86680208414E+03  0.86680208416E+03  0.50400000000E-02 0. -1.
          1   -1    0    0    0  501  0.00000000000E+00 -0.00000000000E+00 -0.25046852452E+01  0.25046903160E+01  0.50400000000E-02 0. -1.
          2    1    1    2    0  502 -0.26101372736E+02 -0.38464049008E+02  0.46209246926E+03  0.46442460623E+03  0.25500000000E-02 0.  1.
         -2    1    1    2  502    0  0.26101372736E+02  0.38464049008E+02  0.40220492964E+03  0.40488216824E+03  0.25500000000E-02 0.  1.
<mgrwt>
<rscale>  0 0.93189454E+02</rscale>
<asrwt>0</asrwt>
<pdfrwt beam="2">  1        1 0.38533645E-03 0.93189454E+02</pdfrwt>
<pdfrwt beam="1">  1       -1 0.13335421E+00 0.93189454E+02</pdfrwt>
<totfact> 0.28441005E+04</totfact>
</mgrwt>
</event>
<event>
 4    1  0.1893769E-002  0.5290167E+02  0.7818608E-02  0.1430291E+00
         -1   -1    0    0  501    0 -0.00000000000E+00  0.00000000000E+00  0.47240305290E+00  0.47242993765E+00  0.50400000000E-02 0. -1.
          1   -1    0    0    0  501  0.00000000000E+00 -0.00000000000E+00 -0.14809952719E+04  0.14809952719E+04  0.50400000000E-02 0. -1.
          2    1    1    2    0  502 -0.20544511053E+02  0.82128580958E+01 -0.33432773644E+03  0.33505904455E+03  0.25500000000E-02 0.  1.
         -2    1    1    2  502    0  0.20544511053E+02 -0.82128580958E+01 -0.11461951324E+04  0.11464086573E+04  0.25500000000E-02 0.  1.
<mgrwt>
<rscale>  0 0.52901668E+02</rscale>
<asrwt>0</asrwt>
<pdfrwt beam="2">  1        1 0.22784171E+00 0.52901668E+02</pdfrwt>
<pdfrwt beam="1">  1       -1 0.72680647E-04 0.52901668E+02</pdfrwt>
<totfact> 0.45427343E+05</totfact>
</mgrwt>
</event>
<event>
 4    1  0.1893769E-002  0.4010291E+02  0.7818608E-02  0.1507455E+00
         -1   -1    0    0  501    0 -0.00000000000E+00  0.00000000000E+00  0.26140018028E+02  0.26140018514E+02  0.50400000000E-02 0.  1.
          1   -1    0    0    0  501  0.00000000000E+00 -0.00000000000E+00 -0.15381048176E+02  0.15381049002E+02  0.50400000000E-02 0.  1.
          2    1    1    2    0  502 -0.18869089093E+02 -0.67607798178E+01  0.48028051080E+01  0.20611104055E+02  0.25500000000E-02 0.  1.
         -2    1    1    2  502    0  0.18869089093E+02  0.67607798178E+01  0.59561647436E+01  0.20909963460E+02  0.25500000000E-02 0.  1.
<mgrwt>
<rscale>  0 0.40102913E+02</rscale>
<asrwt>0</asrwt>
<pdfrwt beam="2">  1        1 0.23663153E-02 0.40102913E+02</pdfrwt>
<pdfrwt beam="1">  1       -1 0.40215412E-02 0.40102913E+02</pdfrwt>
<totfact> 0.74105061E+05</totfact>
</mgrwt>
</event>
<event>
 4    1  0.1893769E-002  0.5597148E+02  0.7818608E-02  0.1415560E+00
         -1   -1    0    0  501    0 -0.00000000000E+00  0.00000000000E+00  0.73327831666E+02  0.73327831839E+02  0.50400000000E-02 0. -1.
          1   -1    0    0    0  501  0.00000000000E+00 -0.00000000000E+00 -0.10680821744E+02  0.10680822933E+02  0.50400000000E-02 0. -1.
          2    1    1    2    0  502 -0.23111572645E+02 -0.49589693521E+01  0.53810527243E+02  0.58773369954E+02  0.25500000000E-02 0. -1.
         -2    1    1    2  502    0  0.23111572645E+02  0.49589693521E+01  0.88364826792E+01  0.25235284817E+02  0.25500000000E-02 0. -1.
<mgrwt>
<rscale>  0 0.55971477E+02</rscale>
<asrwt>0</asrwt>
<pdfrwt beam="2">  1        1 0.16432034E-02 0.55971477E+02</pdfrwt>
<pdfrwt beam="1">  1       -1 0.11281206E-01 0.55971477E+02</pdfrwt>
<totfact> 0.29479698E+05</totfact>
</mgrwt>
</event>
<event>
 4    1  0.1893769E-002  0.5646735E+02  0.7818608E-02  0.1413284E+00
          1   -1    0    0    0  501  0.00000000000E+00  0.00000000000E+00  0.50988035518E+02  0.50988035767E+02  0.50400000000E-02 0. -1.
         -1   -1    0    0  501    0 -0.00000000000E+00 -0.00000000000E+00 -0.15633870540E+02  0.15633871352E+02  0.50400000000E-02 0. -1.
          2    1    1    2    0  502  0.17789760997E+02 -0.18034686638E+02  0.29686657612E+01  0.25505656263E+02  0.25500000000E-02 0.  1.
         -2    1    1    2  502    0 -0.17789760997E+02  0.18034686638E+02  0.32385499217E+02  0.41116250856E+02  0.25500000000E-02 0.  1.
<mgrwt>
<rscale>  0 0.56467349E+02</rscale>
<asrwt>0</asrwt>
<pdfrwt beam="1">  1        1 0.78443133E-02 0.56467349E+02</pdfrwt>
<pdfrwt beam="2">  1       -1 0.24052109E-02 0.56467349E+02</pdfrwt>
<totfact> 0.34150182E+05</totfact>
</mgrwt>
</event>
<event>
 4    1  0.1893769E-002  0.8911732E+02  0.7818608E-02  0.1305003E+00
          1   -1    0    0    0  501  0.00000000000E+00  0.00000000000E+00  0.44355511926E+03  0.44355511929E+03  0.50400000000E-02 0. -1.
         -1   -1    0    0  501    0 -0.00000000000E+00 -0.00000000000E+00 -0.44762723482E+01  0.44762751855E+01  0.50400000000E-02 0. -1.
          2    1    1    2    0  502  0.13436532114E+02  0.19150837840E+02  0.41019645566E+03  0.41086302733E+03  0.25500000000E-02 0.  1.
         -2    1    1    2  502    0 -0.13436532114E+02 -0.19150837840E+02  0.28882391256E+02  0.37168367148E+02  0.25500000000E-02 0.  1.
<mgrwt>
<rscale>  0 0.89117319E+02</rscale>
<asrwt>0</asrwt>
<pdfrwt beam="1">  1        1 0.68239251E-01 0.89117319E+02</pdfrwt>
<pdfrwt beam="2">  1       -1 0.68865749E-03 0.89117319E+02</pdfrwt>
<totfact> 0.14562305E+05</totfact>
</mgrwt>
</event>
<event>
 4    1  0.1893769E-002  0.6471001E+02  0.7818608E-02  0.1379066E+00
         -1   -1    0    0  501    0 -0.00000000000E+00  0.00000000000E+00  0.10415201037E+04  0.10415201037E+04  0.50400000000E-02 0. -1.
          1   -1    0    0    0  501  0.00000000000E+00 -0.00000000000E+00 -0.10051074600E+01  0.10051200962E+01  0.50400000000E-02 0. -1.
          2    1    1    2    0  502 -0.27507962683E+02 -0.77829114173E+01  0.27614702893E+03  0.27762284365E+03  0.25500000000E-02 0.  1.
         -2    1    1    2  502    0  0.27507962683E+02  0.77829114173E+01  0.76436796731E+03  0.76490238016E+03  0.25500000000E-02 0.  1.
<mgrwt>
<rscale>  0 0.64710006E+02</rscale>
<asrwt>0</asrwt>
<pdfrwt beam="2">  1        1 0.15463268E-03 0.64710006E+02</pdfrwt>
<pdfrwt beam="1">  1       -1 0.16023408E+00 0.64710006E+02</pdfrwt>
<totfact> 0.59282514E+04</totfact>
</mgrwt>
</event>
<event>
 4    1  0.1893769E-002  0.7646845E+02  0.7818608E-02  0.1339383E+00
         -1   -1    0    0  501    0 -0.00000000000E+00  0.00000000000E+00  0.60534446849E+01  0.60534467830E+01  0.50400000000E-02 0.  1.
          1   -1    0    0    0  501  0.00000000000E+00 -0.00000000000E+00 -0.24149156788E+03  0.24149156794E+03  0.50400000000E-02 0.  1.
          2    1    1    2    0  502  0.31876297293E+01 -0.24962364789E+02 -0.24535799435E+02  0.35146637101E+02  0.25500000000E-02 0. -1.
         -2    1    1    2  502    0 -0.31876297293E+01  0.24962364789E+02 -0.21090232376E+03  0.21239837762E+03  0.25500000000E-02 0. -1.
<mgrwt>
<rscale>  0 0.76468454E+02</rscale>
<asrwt>0</asrwt>
<pdfrwt beam="2">  1        1 0.37152542E-01 0.76468454E+02</pdfrwt>
<pdfrwt beam="1">  1       -1 0.93129953E-03 0.76468454E+02</pdfrwt>
<totfact> 0.19570327E+05</totfact>
</mgrwt>
</event>
<event>
 4    1  0.1893769E-002  0.4706844E+02  0.7818608E-02  0.1461827E+00
          1   -1    0    0    0  501  0.00000000000E+00  0.00000000000E+00  0.50319088783E+02  0.50319089035E+02  0.50400000000E-02 0.  1.
         -1   -1    0    0  501    0 -0.00000000000E+00 -0.00000000000E+00 -0.11006943618E+02  0.11006944772E+02  0.50400000000E-02 0.  1.
          2    1    1    2    0  502  0.20032902164E+02 -0.10592309014E+02  0.27931895906E+02  0.35968110803E+02  0.25500000000E-02 0.  1.
         -2    1    1    2  502    0 -0.20032902164E+02  0.10592309014E+02  0.11380249259E+02  0.25357923004E+02  0.25500000000E-02 0.  1.
<mgrwt>
<rscale>  0 0.47068436E+02</rscale>
<asrwt>0</asrwt>
<pdfrwt beam="1">  1        1 0.77413984E-02 0.47068436E+02</pdfrwt>
<pdfrwt beam="2">  1       -1 0.16933760E-02 0.47068436E+02</pdfrwt>
<totfact> 0.54399863E+05</totfact>
</mgrwt>
</event>
<event>
 4    1  0.1893769E-002  0.4929488E+02  0.7818608E-02  0.1449182E+00
         -1   -1    0    0  501    0 -0.00000000000E+00  0.00000000000E+00  0.61842396742E+00  0.61844450444E+00  0.50400000000E-02 0. -1.
          1   -1    0    0    0  501  0.00000000000E+00 -0.00000000000E+00 -0.98231337943E+03  0.98231337944E+03  0.50400000000E-02 0. -1.
          2    1    1    2    0  502  0.19667953646E+02  0.10874998063E+02 -0.28906830009E+03  0.28994064239E+03  0.25500000000E-02 0. -1.
         -2    1    1    2  502    0 -0.19667953646E+02 -0.10874998063E+02 -0.69262665537E+03  0.69299118156E+03  0.25500000000E-02 0. -1.
<mgrwt>
<rscale>  0 0.49294878E+02</rscale>
<asrwt>0</asrwt>
<pdfrwt beam="2">  1        1 0.15112389E+00 0.49294878E+02</pdfrwt>
<pdfrwt beam="1">  1       -1 0.95144515E-04 0.49294878E+02</pdfrwt>
<totfact> 0.66038766E+05</totfact>
</mgrwt>
</event>
<event>
 4    1  0.1893769E-002  0.4525879E+02  0.7818608E-02  0.1472732E+00
          1   -1    0    0    0  501  0.00000000000E+00  0.00000000000E+00  0.48318164509E+03  0.48318164511E+03  0.50400000000E-02 0.  1.
         -1   -1    0    0  501    0 -0.00000000000E+00 -0.00000000000E+00 -0.10598223690E+01  0.10598343528E+01  0.50400000000E-02 0.  1.
          2    1    1    2    0  502 -0.21918668319E+02 -0.39570813098E+01  0.19825920188E+03  0.19950638498E+03  0.25500000000E-02 0.  1.
         -2    1    1    2  502    0  0.21918668319E+02  0.39570813098E+01  0.28386262084E+03  0.28473509448E+03  0.25500000000E-02 0.  1.
<mgrwt>
<rscale>  0 0.45258795E+02</rscale>
<asrwt>0</asrwt>
<pdfrwt beam="1">  1        1 0.74335817E-01 0.45258795E+02</pdfrwt>
<pdfrwt beam="2">  1       -1 0.16305013E-03 0.45258795E+02</pdfrwt>
<totfact> 0.83012796E+05</totfact>
</mgrwt>
</event>
<event>
 4    1  0.1893769E-002  0.1207787E+03  0.7818608E-02  0.1241818E+00
         -1   -1    0    0  501    0 -0.00000000000E+00  0.00000000000E+00  0.81304120521E+01  0.81304136143E+01  0.50400000000E-02 0. -1.
          1   -1    0    0    0  501  0.00000000000E+00 -0.00000000000E+00 -0.44854745706E+03  0.44854745709E+03  0.50400000000E-02 0. -1.
          2    1    1    2    0  502  0.88616438434E+00 -0.60156622594E+02 -0.20046276439E+03  0.20929625998E+03  0.25500000000E-02 0. -1.
         -2    1    1    2  502    0 -0.88616438434E+00  0.60156622594E+02 -0.23995428061E+03  0.24738161072E+03  0.25500000000E-02 0. -1.
<mgrwt>
<rscale>  0 0.12077874E+03</rscale>
<asrwt>0</asrwt>
<pdfrwt beam="2">  1        1 0.69007282E-01 0.12077874E+03</pdfrwt>
<pdfrwt beam="1">  1       -1 0.12508331E-02 0.12077874E+03</pdfrwt>
<totfact> 0.64439603E+04</totfact>
</mgrwt>
</event>
<event>
 4    1  0.1893769E-002  0.4820950E+02  0.7818608E-02  0.1455245E+00
         -1   -1    0    0  501    0 -0.00000000000E+00  0.00000000000E+00  0.62775534793E+00  0.62777557969E+00  0.50400000000E-02 0. -1.
          1   -1    0    0    0  501  0.00000000000E+00 -0.00000000000E+00 -0.92556687093E+03  0.92556687095E+03  0.50400000000E-02 0. -1.
          2    1    1    2    0  502  0.20124509916E+02 -0.45592017226E+01 -0.70185340068E+03  0.70215666220E+03  0.25500000000E-02 0.  1.
         -2    1    1    2  502    0 -0.20124509916E+02  0.45592017226E+01 -0.22308571490E+03  0.22403798432E+03  0.25500000000E-02 0.  1.
<mgrwt>
<rscale>  0 0.48209498E+02</rscale>
<asrwt>0</asrwt>
<pdfrwt beam="2">  1        1 0.14239381E+00 0.48209498E+02</pdfrwt>
<pdfrwt beam="1">  1       -1 0.96580044E-04 0.48209498E+02</pdfrwt>
<totfact> 0.70695101E+05</totfact>
</mgrwt>
</event>
<event>
 4    1  0.1893769E-002  0.4314375E+02  0.7818608E-02  0.1486274E+00
         -1   -1    0    0  501    0 -0.00000000000E+00  0.00000000000E+00  0.39105855102E+01  0.39105887580E+01  0.50400000000E-02 0.  1.
          1   -1    0    0    0  501  0.00000000000E+00 -0.00000000000E+00 -0.11899641700E+03  0.11899641710E+03  0.50400000000E-02 0.  1.
          2    1    1    2    0  502  0.11474704386E+02 -0.18251495106E+02 -0.55411181370E+02  0.59457421250E+02  0.25500000000E-02 0.  1.
         -2    1    1    2  502    0 -0.11474704386E+02  0.18251495106E+02 -0.59674650116E+02  0.63449584611E+02  0.25500000000E-02 0.  1.
<mgrwt>
<rscale>  0 0.43143754E+02</rscale>
<asrwt>0</asrwt>
<pdfrwt beam="2">  1        1 0.18307139E-01 0.43143754E+02</pdfrwt>
<pdfrwt beam="1">  1       -1 0.60162889E-03 0.43143754E+02</pdfrwt>
<totfact> 0.74749177E+05</totfact>
</mgrwt>
</event>
<event>
 4    1  0.1893769E-002  0.7725794E+02  0.7818608E-02  0.1337018E+00
         -1   -1    0    0  501    0 -0.00000000000E+00  0.00000000000E+00  0.62834483852E+01  0.62834504065E+01  0.50400000000E-02 0. -1.
          1   -1    0    0    0  501  0.00000000000E+00 -0.00000000000E+00 -0.23748059535E+03  0.23748059541E+03  0.50400000000E-02 0. -1.
          2    1    1    2    0  502  0.33532290749E+02 -0.14668729296E+02 -0.76620561562E+02  0.84913465379E+02  0.25500000000E-02 0.  1.
         -2    1    1    2  502    0 -0.33532290749E+02  0.14668729296E+02 -0.15457658541E+03  0.15885058043E+03  0.25500000000E-02 0.  1.
<mgrwt>
<rscale>  0 0.77257940E+02</rscale>
<asrwt>0</asrwt>
<pdfrwt beam="2">  1        1 0.36535469E-01 0.77257940E+02</pdfrwt>
<pdfrwt beam="1">  1       -1 0.96668471E-03 0.77257940E+02</pdfrwt>
<totfact> 0.18989593E+05</totfact>
</mgrwt>
</event>
<event>
 4    1  0.1893769E-002  0.5185914E+02  0.7818608E-02  0.1435564E+00
         -1   -1    0    0  501    0 -0.00000000000E+00  0.00000000000E+00  0.31221387822E+01  0.31221428502E+01  0.50400000000E-02 0. -1.
          1   -1    0    0    0  501  0.00000000000E+00 -0.00000000000E+00 -0.21534668574E+03  0.21534668579E+03  0.50400000000E-02 0. -1.
          2    1    1    2    0  502 -0.23114590196E+02  0.72541018481E+01 -0.67173197983E+02  0.71408296488E+02  0.25500000000E-02 0. -1.
         -2    1    1    2  502    0  0.23114590196E+02 -0.72541018481E+01 -0.14505134897E+03  0.14706053216E+03  0.25500000000E-02 0. -1.
<mgrwt>
<rscale>  0 0.51859143E+02</rscale>
<asrwt>0</asrwt>
<pdfrwt beam="2">  1        1 0.33130248E-01 0.51859143E+02</pdfrwt>
<pdfrwt beam="1">  1       -1 0.48032953E-03 0.51859143E+02</pdfrwt>
<totfact> 0.51955851E+05</totfact>
</mgrwt>
</event>
<event>
 4    1  0.1893769E-002  0.4684546E+02  0.7818608E-02  0.1463139E+00
         -1   -1    0    0  501    0 -0.00000000000E+00  0.00000000000E+00  0.85886903230E+00  0.85888381999E+00  0.50400000000E-02 0.  1.
          1   -1    0    0    0  501  0.00000000000E+00 -0.00000000000E+00 -0.63876963938E+03  0.63876963940E+03  0.50400000000E-02 0.  1.
          2    1    1    2    0  502  0.16798254117E+02  0.13616144877E+02 -0.19603630450E+03  0.19722528598E+03  0.25500000000E-02 0.  1.
         -2    1    1    2  502    0 -0.16798254117E+02 -0.13616144877E+02 -0.44187446585E+03  0.44240323724E+03  0.25500000000E-02 0.  1.
<mgrwt>
<rscale>  0 0.46845456E+02</rscale>
<asrwt>0</asrwt>
<pdfrwt beam="2">  1        1 0.98271874E-01 0.46845456E+02</pdfrwt>
<pdfrwt beam="1">  1       -1 0.13213535E-03 0.46845456E+02</pdfrwt>
<totfact> 0.77894215E+05</totfact>
</mgrwt>
</event>
<event>
 4    1  0.1893769E-002  0.4562247E+02  0.7818608E-02  0.1470493E+00
         -1   -1    0    0  501    0 -0.00000000000E+00  0.00000000000E+00  0.90533175525E+02  0.90533175665E+02  0.50400000000E-02 0.  1.
          1   -1    0    0    0  501  0.00000000000E+00 -0.00000000000E+00 -0.57476412939E+01  0.57476435037E+01  0.50400000000E-02 0.  1.
          2    1    1    2    0  502  0.21538290888E+02 -0.73857471326E+01  0.45305621273E+02  0.50705488466E+02  0.25500000000E-02 0.  1.
         -2    1    1    2  502    0 -0.21538290888E+02  0.73857471326E+01  0.39479912958E+02  0.45575330703E+02  0.25500000000E-02 0.  1.
<mgrwt>
<rscale>  0 0.45622465E+02</rscale>
<asrwt>0</asrwt>
<pdfrwt beam="2">  1        1 0.88425266E-03 0.45622465E+02</pdfrwt>
<pdfrwt beam="1">  1       -1 0.13928181E-01 0.45622465E+02</pdfrwt>
<totfact> 0.47383520E+05</totfact>
</mgrwt>
</event>
<event>
 4    1  0.1893769E-002  0.4926541E+02  0.7818608E-02  0.1449344E+00
         -1   -1    0    0  501    0 -0.00000000000E+00  0.00000000000E+00  0.48042399680E+00  0.48045043272E+00  0.50400000000E-02 0.  1.
          1   -1    0    0    0  501  0.00000000000E+00 -0.00000000000E+00 -0.12629541770E+04  0.12629541770E+04  0.50400000000E-02 0.  1.
          2    1    1    2    0  502  0.45018165082E+01 -0.23956768480E+02 -0.54028730336E+03  0.54083691007E+03  0.25500000000E-02 0. -1.
         -2    1    1    2  502    0 -0.45018165082E+01  0.23956768480E+02 -0.72218644967E+03  0.72259771740E+03  0.25500000000E-02 0. -1.
<mgrwt>
<rscale>  0 0.49265412E+02</rscale>
<asrwt>0</asrwt>
<pdfrwt beam="2">  1        1 0.19429799E+00 0.49265412E+02</pdfrwt>
<pdfrwt beam="1">  1       -1 0.73914429E-04 0.49265412E+02</pdfrwt>
<totfact> 0.60163275E+05</totfact>
</mgrwt>
</event>
<event>
 4    1  0.1893769E-002  0.9590664E+02  0.7818608E-02  0.1289147E+00
          1   -1    0    0    0  501  0.00000000000E+00  0.00000000000E+00  0.73468263998E+02  0.73468264171E+02  0.50400000000E-02 0. -1.
         -1   -1    0    0  501    0 -0.00000000000E+00 -0.00000000000E+00 -0.31299512607E+02  0.31299513013E+02  0.50400000000E-02 0. -1.
          2    1    1    2    0  502 -0.29306353086E+02  0.21549891126E+02  0.55216393797E+02  0.66121935007E+02  0.25500000000E-02 0. -1.
         -2    1    1    2  502    0  0.29306353086E+02 -0.21549891126E+02 -0.13047642405E+02  0.38645842177E+02  0.25500000000E-02 0. -1.
<mgrwt>
<rscale>  0 0.95906640E+02</rscale>
<asrwt>0</asrwt>
<pdfrwt beam="1">  1        1 0.11302810E-01 0.95906640E+02</pdfrwt>
<pdfrwt beam="2">  1       -1 0.48153097E-02 0.95906640E+02</pdfrwt>
<totfact> 0.86434391E+04</totfact>
</mgrwt>
</event>
<event>
 4    1  0.1893769E-002  0.6111800E+02  0.7818608E-02  0.1393199E+00
         -1   -1    0    0  501    0 -0.00000000000E+00  0.00000000000E+00  0.46513777104E+02  0.46513777377E+02  0.50400000000E-02 0. -1.
          1   -1    0    0    0  501  0.00000000000E+00 -0.00000000000E+00 -0.20076898194E+02  0.20076898827E+02  0.50400000000E-02 0. -1.
          2    1    1    2    0  502  0.26040181070E+02  0.14221373551E+02  0.52480857833E+01  0.30131062157E+02  0.25500000000E-02 0. -1.
         -2    1    1    2  502    0 -0.26040181070E+02 -0.14221373551E+02  0.21188793126E+02  0.36459614047E+02  0.25500000000E-02 0. -1.
<mgrwt>
<rscale>  0 0.61117997E+02</rscale>
<asrwt>0</asrwt>
<pdfrwt beam="2">  1        1 0.30887537E-02 0.61117997E+02</pdfrwt>
<pdfrwt beam="1">  1       -1 0.71559657E-02 0.61117997E+02</pdfrwt>
<totfact> 0.25080258E+05</totfact>
</mgrwt>
</event>
<event>
 4    1  0.1893769E-002  0.6320778E+02  0.7818608E-02  0.1384843E+00
          1   -1    0    0    0  501  0.00000000000E+00  0.00000000000E+00  0.72994470480E+02  0.72994470654E+02  0.50400000000E-02 0.  1.
         -1   -1    0    0  501    0 -0.00000000000E+00 -0.00000000000E+00 -0.13683309655E+02  0.13683310583E+02  0.50400000000E-02 0.  1.
          2    1    1    2    0  502 -0.22051148375E+02 -0.73368647827E+01  0.28499524553E+00  0.23241427630E+02  0.25500000000E-02 0.  1.
         -2    1    1    2  502    0  0.22051148375E+02  0.73368647827E+01  0.59026165580E+02  0.63436353608E+02  0.25500000000E-02 0.  1.
<mgrwt>
<rscale>  0 0.63207784E+02</rscale>
<asrwt>0</asrwt>
<pdfrwt beam="1">  1        1 0.11229919E-01 0.63207784E+02</pdfrwt>
<pdfrwt beam="2">  1       -1 0.21051247E-02 0.63207784E+02</pdfrwt>
<totfact> 0.26543504E+05</totfact>
</mgrwt>
</event>
<event>
 4    1  0.1893769E-002  0.7266175E+02  0.7818608E-02  0.1351269E+00
         -1   -1    0    0  501    0 -0.00000000000E+00  0.00000000000E+00  0.54108344162E+00  0.54110691401E+00  0.50400000000E-02 0.  1.
          1   -1    0    0    0  501  0.00000000000E+00 -0.00000000000E+00 -0.24393719699E+04  0.24393719699E+04  0.50400000000E-02 0.  1.
          2    1    1    2    0  502 -0.29071366128E+02 -0.19832994567E+02 -0.15224474465E+04  0.15228541360E+04  0.25500000000E-02 0. -1.
         -2    1    1    2  502    0  0.29071366128E+02  0.19832994567E+02 -0.91638343996E+03  0.91705894088E+03  0.25500000000E-02 0. -1.
<mgrwt>
<rscale>  0 0.72661748E+02</rscale>
<asrwt>0</asrwt>
<pdfrwt beam="2">  1        1 0.37527919E+00 0.72661748E+02</pdfrwt>
<pdfrwt beam="1">  1       -1 0.83247366E-04 0.72661748E+02</pdfrwt>
<totfact> 0.10069722E+05</totfact>
</mgrwt>
</event>
<event>
 4    1  0.1893769E-002  0.4436136E+02  0.7818608E-02  0.1478368E+00
          1   -1    0    0    0  501  0.00000000000E+00  0.00000000000E+00  0.84361666708E+01  0.84361681764E+01  0.50400000000E-02 0.  1.
         -1   -1    0    0  501    0 -0.00000000000E+00 -0.00000000000E+00 -0.58318253001E+02  0.58318253218E+02  0.50400000000E-02 0.  1.
          2    1    1    2    0  502  0.18198746812E+02  0.11848090832E+02 -0.18142648311E+02  0.28297125934E+02  0.25500000000E-02 0. -1.
         -2    1    1    2  502    0 -0.18198746812E+02 -0.11848090832E+02 -0.31739438019E+02  0.38457295461E+02  0.25500000000E-02 0. -1.
<mgrwt>
<rscale>  0 0.44361360E+02</rscale>
<asrwt>0</asrwt>
<pdfrwt beam="1">  1        1 0.12978720E-02 0.44361360E+02</pdfrwt>
<pdfrwt beam="2">  1       -1 0.89720388E-02 0.44361360E+02</pdfrwt>
<totfact> 0.53827596E+05</totfact>
</mgrwt>
</event>
<event>
 4    1  0.1893769E-002  0.5104159E+02  0.7818608E-02  0.1439803E+00
          1   -1    0    0    0  501  0.00000000000E+00  0.00000000000E+00  0.28254508435E+02  0.28254508885E+02  0.50400000000E-02 0. -1.
         -1   -1    0    0  501    0 -0.00000000000E+00 -0.00000000000E+00 -0.23051576450E+02  0.23051577001E+02  0.50400000000E-02 0. -1.
          2    1    1    2    0  502  0.16912600054E+02  0.14459192108E+02  0.15164499543E+02  0.26927055722E+02  0.25500000000E-02 0.  1.
         -2    1    1    2  502    0 -0.16912600054E+02 -0.14459192108E+02 -0.99615675576E+01  0.24379030163E+02  0.25500000000E-02 0.  1.
<mgrwt>
<rscale>  0 0.51041590E+02</rscale>
<asrwt>0</asrwt>
<pdfrwt beam="1">  1        1 0.43468475E-02 0.51041590E+02</pdfrwt>
<pdfrwt beam="2">  1       -1 0.35463965E-02 0.51041590E+02</pdfrwt>
<totfact> 0.41917899E+05</totfact>
</mgrwt>
</event>
<event>
 4    1  0.1893769E-002  0.7503968E+02  0.7818608E-02  0.1343748E+00
          1   -1    0    0    0  501  0.00000000000E+00  0.00000000000E+00  0.21747511443E+03  0.21747511449E+03  0.50400000000E-02 0. -1.
         -1   -1    0    0  501    0 -0.00000000000E+00 -0.00000000000E+00 -0.64730991783E+01  0.64731011404E+01  0.50400000000E-02 0. -1.
          2    1    1    2    0  502  0.34325400908E+02  0.13594292491E+02  0.85547845709E+02  0.93174416272E+02  0.25500000000E-02 0. -1.
         -2    1    1    2  502    0 -0.34325400908E+02 -0.13594292491E+02  0.12545416954E+03  0.13077379935E+03  0.25500000000E-02 0. -1.
<mgrwt>
<rscale>  0 0.75039675E+02</rscale>
<asrwt>0</asrwt>
<pdfrwt beam="1">  1        1 0.33457708E-01 0.75039675E+02</pdfrwt>
<pdfrwt beam="2">  1       -1 0.99586161E-03 0.75039675E+02</pdfrwt>
<totfact> 0.20161929E+05</totfact>
</mgrwt>
</event>
<event>
 4    1  0.1893769E-002  0.4165781E+02  0.7818608E-02  0.1496354E+00
         -1   -1    0    0  501    0 -0.00000000000E+00  0.00000000000E+00  0.42348694272E+01  0.42348724263E+01  0.50400000000E-02 0. -1.
          1   -1    0    0    0  501  0.00000000000E+00 -0.00000000000E+00 -0.10244543516E+03  0.10244543529E+03  0.50400000000E-02 0. -1.
          2    1    1    2    0  502  0.19108318780E+02  0.82883707754E+01 -0.49451376874E+02  0.53658770187E+02  0.25500000000E-02 0. -1.
         -2    1    1    2  502    0 -0.19108318780E+02 -0.82883707754E+01 -0.48759188863E+02  0.53021537528E+02  0.25500000000E-02 0. -1.
<mgrwt>
<rscale>  0 0.41657806E+02</rscale>
<asrwt>0</asrwt>
<pdfrwt beam="2">  1        1 0.15760835E-01 0.41657806E+02</pdfrwt>
<pdfrwt beam="1">  1       -1 0.65151869E-03 0.41657806E+02</pdfrwt>
<totfact> 0.79871260E+05</totfact>
</mgrwt>
</event>
<event>
 4    1  0.1893769E-002  0.4054716E+02  0.7818608E-02  0.1504223E+00
         -1   -1    0    0  501    0 -0.00000000000E+00  0.00000000000E+00  0.37290695761E+02  0.37290696102E+02  0.50400000000E-02 0. -1.
          1   -1    0    0    0  501  0.00000000000E+00 -0.00000000000E+00 -0.11021998842E+02  0.11021999994E+02  0.50400000000E-02 0. -1.
          2    1    1    2    0  502  0.12437361728E+02 -0.15988020097E+02  0.12128039448E+02  0.23609195258E+02  0.25500000000E-02 0.  1.
         -2    1    1    2  502    0 -0.12437361728E+02  0.15988020097E+02  0.14140657472E+02  0.24703500838E+02  0.25500000000E-02 0.  1.
<mgrwt>
<rscale>  0 0.40547160E+02</rscale>
<asrwt>0</asrwt>
<pdfrwt beam="2">  1        1 0.16956922E-02 0.40547160E+02</pdfrwt>
<pdfrwt beam="1">  1       -1 0.57370302E-02 0.40547160E+02</pdfrwt>
<totfact> 0.70056026E+05</totfact>
</mgrwt>
</event>
<event>
 4    1  0.1893769E-002  0.5211700E+02  0.7818608E-02  0.1434246E+00
          1   -1    0    0    0  501  0.00000000000E+00  0.00000000000E+00  0.11028330953E+04  0.11028330953E+04  0.50400000000E-02 0.  1.
         -1   -1    0    0  501    0 -0.00000000000E+00 -0.00000000000E+00 -0.61571781471E+00  0.61573844199E+00  0.50400000000E-02 0.  1.
          2    1    1    2    0  502 -0.20171350694E+02 -0.16039083566E+02  0.63286256041E+03  0.63338705068E+03  0.25500000000E-02 0.  1.
         -2    1    1    2  502    0  0.20171350694E+02  0.16039083566E+02  0.46935481706E+03  0.47006178306E+03  0.25500000000E-02 0.  1.
<mgrwt>
<rscale>  0 0.52116998E+02</rscale>
<asrwt>0</asrwt>
<pdfrwt beam="1">  1        1 0.16966715E+00 0.52116998E+02</pdfrwt>
<pdfrwt beam="2">  1       -1 0.94727113E-04 0.52116998E+02</pdfrwt>
<totfact> 0.55525366E+05</totfact>
</mgrwt>
</event>
<event>
 4    1  0.1893769E-002  0.4617386E+02  0.7818608E-02  0.1467144E+00
         -1   -1    0    0  501    0 -0.00000000000E+00  0.00000000000E+00  0.41910521932E+02  0.41910522235E+02  0.50400000000E-02 0.  1.
          1   -1    0    0    0  501  0.00000000000E+00 -0.00000000000E+00 -0.12717721845E+02  0.12717722844E+02  0.50400000000E-02 0.  1.
          2    1    1    2    0  502 -0.22407211472E+02  0.48923086725E+01  0.17724030917E+02  0.28985497900E+02  0.25500000000E-02 0.  1.
         -2    1    1    2  502    0  0.22407211472E+02 -0.48923086725E+01  0.11468769170E+02  0.25642747178E+02  0.25500000000E-02 0.  1.
<mgrwt>
<rscale>  0 0.46173863E+02</rscale>
<asrwt>0</asrwt>
<pdfrwt beam="2">  1        1 0.19565727E-02 0.46173863E+02</pdfrwt>
<pdfrwt beam="1">  1       -1 0.64477728E-02 0.46173863E+02</pdfrwt>
<totfact> 0.50583570E+05</totfact>
</mgrwt>
</event>
<event>
 4    1  0.1893769E-002  0.5350938E+02  0.7818608E-02  0.1427283E+00
         -1   -1    0    0  501    0 -0.00000000000E+00  0.00000000000E+00  0.33256303792E+00  0.33260122638E+00  0.50400000000E-02 0.  1.
          1   -1    0    0    0  501  0.00000000000E+00 -0.00000000000E+00 -0.21522908999E+04  0.21522908999E+04  0.50400000000E-02 0.  1.
          2    1    1    2    0  502  0.87772281411E+01  0.23720914464E+02 -0.72505959258E+03  0.72550060945E+03  0.25500000000E-02 0. -1.
         -2    1    1    2  502    0 -0.87772281411E+01 -0.23720914464E+02 -0.14268987443E+04  0.14271228917E+04  0.25500000000E-02 0. -1.
<mgrwt>
<rscale>  0 0.53509383E+02</rscale>
<asrwt>0</asrwt>
<pdfrwt beam="2">  1        1 0.33111053E+00 0.53509383E+02</pdfrwt>
<pdfrwt beam="1">  1       -1 0.51168206E-04 0.53509383E+02</pdfrwt>
<totfact> 0.28229293E+05</totfact>
</mgrwt>
</event>
<event>
 4    1  0.1893769E-002  0.8051377E+02  0.7818608E-02  0.1327600E+00
         -1   -1    0    0  501    0 -0.00000000000E+00  0.00000000000E+00  0.54104418019E+01  0.54104441493E+01  0.50400000000E-02 0. -1.
          1   -1    0    0    0  501  0.00000000000E+00 -0.00000000000E+00 -0.29953492196E+03  0.29953492201E+03  0.50400000000E-02 0. -1.
          2    1    1    2    0  502 -0.35800087739E+02 -0.97610797173E-01 -0.77331119813E+02  0.85215948672E+02  0.25500000000E-02 0.  1.
         -2    1    1    2  502    0  0.35800087739E+02  0.97610797173E-01 -0.21679336035E+03  0.21972941748E+03  0.25500000000E-02 0.  1.
<mgrwt>
<rscale>  0 0.80513766E+02</rscale>
<asrwt>0</asrwt>
<pdfrwt beam="2">  1        1 0.46082283E-01 0.80513766E+02</pdfrwt>
<pdfrwt beam="1">  1       -1 0.83237608E-03 0.80513766E+02</pdfrwt>
<totfact> 0.17800962E+05</totfact>
</mgrwt>
</event>
<event>
 4    1  0.1893769E-002  0.4389158E+02  0.7818608E-02  0.1481382E+00
         -1   -1    0    0  501    0 -0.00000000000E+00  0.00000000000E+00  0.86305016663E+03  0.86305016665E+03  0.50400000000E-02 0. -1.
          1   -1    0    0    0  501  0.00000000000E+00 -0.00000000000E+00 -0.55802992966E+00  0.55805268926E+00  0.50400000000E-02 0. -1.
          2    1    1    2    0  502 -0.11513848878E+02 -0.17220342456E+02  0.28866844419E+03  0.28941074546E+03  0.25500000000E-02 0. -1.
         -2    1    1    2  502    0  0.11513848878E+02  0.17220342456E+02  0.57382369251E+03  0.57419747387E+03  0.25500000000E-02 0. -1.
<mgrwt>
<rscale>  0 0.43891578E+02</rscale>
<asrwt>0</asrwt>
<pdfrwt beam="2">  1        1 0.85851990E-04 0.43891578E+02</pdfrwt>
<pdfrwt beam="1">  1       -1 0.13277775E+00 0.43891578E+02</pdfrwt>
<totfact> 0.19355342E+05</totfact>
</mgrwt>
</event>
<event>
 4    1  0.1893769E-002  0.7727854E+02  0.7818608E-02  0.1336957E+00
         -1   -1    0    0  501    0 -0.00000000000E+00  0.00000000000E+00  0.14178949535E+01  0.14179039109E+01  0.50400000000E-02 0.  1.
          1   -1    0    0    0  501  0.00000000000E+00 -0.00000000000E+00 -0.10529612543E+04  0.10529612543E+04  0.50400000000E-02 0.  1.
          2    1    1    2    0  502  0.27035609878E+02  0.21228551746E+02 -0.28499775365E+03  0.28706322509E+03  0.25500000000E-02 0.  1.
         -2    1    1    2  502    0 -0.27035609878E+02 -0.21228551746E+02 -0.76654560572E+03  0.76731593315E+03  0.25500000000E-02 0.  1.
<mgrwt>
<rscale>  0 0.77278540E+02</rscale>
<asrwt>0</asrwt>
<pdfrwt beam="2">  1        1 0.16199341E+00 0.77278540E+02</pdfrwt>
<pdfrwt beam="1">  1       -1 0.21813922E-03 0.77278540E+02</pdfrwt>
<totfact> 0.20673793E+05</totfact>
</mgrwt>
</event>
<event>
 4    1  0.1893769E-002  0.5683087E+02  0.7818608E-02  0.1411634E+00
          1   -1    0    0    0  501  0.00000000000E+00  0.00000000000E+00  0.33963772657E+03  0.33963772661E+03  0.50400000000E-02 0. -1.
         -1   -1    0    0  501    0 -0.00000000000E+00 -0.00000000000E+00 -0.23773450837E+01  0.23773504261E+01  0.50400000000E-02 0. -1.
          2    1    1    2    0  502 -0.25086110997E+02  0.12817842254E+02  0.19100833642E+03  0.19307458308E+03  0.25500000000E-02 0. -1.
         -2    1    1    2  502    0  0.25086110997E+02 -0.12817842254E+02  0.14625204507E+03  0.14894049395E+03  0.25500000000E-02 0. -1.
<mgrwt>
<rscale>  0 0.56830872E+02</rscale>
<asrwt>0</asrwt>
<pdfrwt beam="1">  1        1 0.52251895E-01 0.56830872E+02</pdfrwt>
<pdfrwt beam="2">  1       -1 0.36574626E-03 0.56830872E+02</pdfrwt>
<totfact> 0.44705232E+05</totfact>
</mgrwt>
</event>
