<event>
 4    1  0.4696545E-002  0.6511336E+02  0.7818608E-02  0.1377546E+00
         -2   -1    0    0  501    0 -0.00000000000E+00  0.00000000000E+00  0.22718020608E+03  0.22718020609E+03  0.25500000000E-02 0. -1.
          2   -1    0    0    0  501  0.00000000000E+00 -0.00000000000E+00 -0.46656240778E+01  0.46656247747E+01  0.25500000000E-02 0. -1.
          2    1    1    2    0  502 -0.32457116033E+02  0.88173064977E+00  0.10275957614E+03  0.10776721359E+03  0.25500000000E-02 0. -1.
         -2    1    1    2  502    0  0.32457116033E+02 -0.88173064977E+00  0.11975500586E+03  0.12407861728E+03  0.25500000000E-02 0. -1.
<mgrwt>
<rscale>  0 0.65113363E+02</rscale>
<asrwt>0</asrwt>
<pdfrwt beam="2">  1        2 0.71778846E-03 0.65113363E+02</pdfrwt>
<pdfrwt beam="1">  1       -2 0.34950797E-01 0.65113363E+02</pdfrwt>
<totfact> 0.13836340E+05</totfact>
</mgrwt>
</event>
<event>
 4    1  0.4696545E-002  0.4217159E+02  0.7818608E-02  0.1492813E+00
         -2   -1    0    0  501    0 -0.00000000000E+00  0.00000000000E+00  0.19149856400E+03  0.19149856402E+03  0.25500000000E-02 0. -1.
          2   -1    0    0    0  501  0.00000000000E+00 -0.00000000000E+00 -0.23217435952E+01  0.23217449955E+01  0.25500000000E-02 0. -1.
          2    1    1    2    0  502  0.16588807463E+02  0.11448530751E+02  0.12305141409E+03  0.12469125032E+03  0.25500000000E-02 0. -1.
         -2    1    1    2  502    0 -0.16588807463E+02 -0.11448530751E+02  0.66125406316E+02  0.69129058698E+02  0.25500000000E-02 0. -1.
<mgrwt>
<rscale>  0 0.42171588E+02</rscale>
<asrwt>0</asrwt>
<pdfrwt beam="2">  1        2 0.35719136E-03 0.42171588E+02</pdfrwt>
<pdfrwt beam="1">  1       -2 0.29461324E-01 0.42171588E+02</pdfrwt>
<totfact> 0.43448171E+05</totfact>
</mgrwt>
</event>
<event>
 4    1  0.4696545E-002  0.4925602E+02  0.7818608E-02  0.1449396E+00
          2   -1    0    0    0  501  0.00000000000E+00  0.00000000000E+00  0.15794086296E+02  0.15794086502E+02  0.25500000000E-02 0. -1.
         -2   -1    0    0  501    0 -0.00000000000E+00 -0.00000000000E+00 -0.38402912195E+02  0.38402912280E+02  0.25500000000E-02 0. -1.
          2    1    1    2    0  502 -0.15399367201E+02  0.14229252332E+02 -0.25520461966E+02  0.33028867943E+02  0.25500000000E-02 0. -1.
         -2    1    1    2  502    0  0.15399367201E+02 -0.14229252332E+02  0.29116360667E+01  0.21168130839E+02  0.25500000000E-02 0. -1.
<mgrwt>
<rscale>  0 0.49256022E+02</rscale>
<asrwt>0</asrwt>
<pdfrwt beam="1">  1        2 0.24298595E-02 0.49256022E+02</pdfrwt>
<pdfrwt beam="2">  1       -2 0.59081403E-02 0.49256022E+02</pdfrwt>
<totfact> 0.44157380E+05</totfact>
</mgrwt>
</event>
<event>
 4    1  0.4696545E-002  0.5556932E+02  0.7818608E-02  0.1417426E+00
         -2   -1    0    0  501    0 -0.00000000000E+00  0.00000000000E+00  0.24142551109E+02  0.24142551244E+02  0.25500000000E-02 0.  1.
          2   -1    0    0    0  501  0.00000000000E+00 -0.00000000000E+00 -0.31976207593E+02  0.31976207695E+02  0.25500000000E-02 0.  1.
          2    1    1    2    0  502  0.24832957041E+02 -0.58160147778E+01 -0.15047852372E+02  0.29613166848E+02  0.25500000000E-02 0.  1.
         -2    1    1    2  502    0 -0.24832957041E+02  0.58160147778E+01  0.72141958873E+01  0.26505592091E+02  0.25500000000E-02 0.  1.
<mgrwt>
<rscale>  0 0.55569316E+02</rscale>
<asrwt>0</asrwt>
<pdfrwt beam="2">  1        2 0.49194166E-02 0.55569316E+02</pdfrwt>
<pdfrwt beam="1">  1       -2 0.37142386E-02 0.55569316E+02</pdfrwt>
<totfact> 0.35906377E+05</totfact>
</mgrwt>
</event>
<event>
 4    1  0.4696545E-002  0.7755438E+02  0.7818608E-02  0.1336139E+00
          2   -1    0    0    0  501  0.00000000000E+00  0.00000000000E+00  0.12389793689E+04  0.12389793689E+04  0.25500000000E-02 0. -1.
         -2   -1    0    0  501    0 -0.00000000000E+00 -0.00000000000E+00 -0.12136350118E+01  0.12136376907E+01  0.25500000000E-02 0. -1.
          2    1    1    2    0  502 -0.31584770572E+01  0.31608748642E+02  0.26325002597E+03  0.26515969744E+03  0.25500000000E-02 0. -1.
         -2    1    1    2  502    0  0.31584770572E+01 -0.31608748642E+02  0.97451570796E+03  0.97503330920E+03  0.25500000000E-02 0. -1.
<mgrwt>
<rscale>  0 0.77554378E+02</rscale>
<asrwt>0</asrwt>
<pdfrwt beam="1">  1        2 0.19061403E+00 0.77554378E+02</pdfrwt>
<pdfrwt beam="2">  1       -2 0.18671150E-03 0.77554378E+02</pdfrwt>
<totfact> 0.37796139E+05</totfact>
</mgrwt>
</event>
<event>
 4    1  0.4696545E-002  0.5817032E+02  0.7818608E-02  0.1405674E+00
         -2   -1    0    0  501    0 -0.00000000000E+00  0.00000000000E+00  0.50681975078E+00  0.50682616574E+00  0.25500000000E-02 0. -1.
          2   -1    0    0    0  501  0.00000000000E+00 -0.00000000000E+00 -0.16691165211E+04  0.16691165211E+04  0.25500000000E-02 0. -1.
          2    1    1    2    0  502  0.70007095998E+01 -0.24370334516E+02 -0.12432736022E+04  0.12435321359E+04  0.25500000000E-02 0. -1.
         -2    1    1    2  502    0 -0.70007095998E+01  0.24370334516E+02 -0.42533609921E+03  0.42609121141E+03  0.25500000000E-02 0. -1.
<mgrwt>
<rscale>  0 0.58170322E+02</rscale>
<asrwt>0</asrwt>
<pdfrwt beam="2">  1        2 0.25678276E+00 0.58170322E+02</pdfrwt>
<pdfrwt beam="1">  1       -2 0.77974099E-04 0.58170322E+02</pdfrwt>
<totfact> 0.71592580E+05</totfact>
</mgrwt>
</event>
<event>
 4    1  0.4696545E-002  0.7681019E+02  0.7818608E-02  0.1338355E+00
         -2   -1    0    0  501    0 -0.00000000000E+00  0.00000000000E+00  0.68944186533E+01  0.68944191249E+01  0.25500000000E-02 0. -1.
          2   -1    0    0    0  501  0.00000000000E+00 -0.00000000000E+00 -0.21393411247E+03  0.21393411248E+03  0.25500000000E-02 0. -1.
          2    1    1    2    0  502  0.36570558695E+02  0.11426320948E+02 -0.11111809741E+03  0.11753807108E+03  0.25500000000E-02 0.  1.
         -2    1    1    2  502    0 -0.36570558695E+02 -0.11426320948E+02 -0.95921596403E+02  0.10329046053E+03  0.25500000000E-02 0.  1.
<mgrwt>
<rscale>  0 0.76810192E+02</rscale>
<asrwt>0</asrwt>
<pdfrwt beam="2">  1        2 0.32912935E-01 0.76810192E+02</pdfrwt>
<pdfrwt beam="1">  1       -2 0.10606800E-02 0.76810192E+02</pdfrwt>
<totfact> 0.25011791E+05</totfact>
</mgrwt>
</event>
<event>
 4    1  0.4696545E-002  0.4062220E+02  0.7818608E-02  0.1503682E+00
         -2   -1    0    0  501    0 -0.00000000000E+00  0.00000000000E+00  0.34911037000E+02  0.34911037094E+02  0.25500000000E-02 0. -1.
          2   -1    0    0    0  501  0.00000000000E+00 -0.00000000000E+00 -0.11816913395E+02  0.11816913670E+02  0.25500000000E-02 0. -1.
          2    1    1    2    0  502 -0.10555428909E+02 -0.17309500700E+02  0.10135974076E+02  0.22666580486E+02  0.25500000000E-02 0.  1.
         -2    1    1    2  502    0  0.10555428909E+02  0.17309500700E+02  0.12958149529E+02  0.24061370278E+02  0.25500000000E-02 0.  1.
<mgrwt>
<rscale>  0 0.40622196E+02</rscale>
<asrwt>0</asrwt>
<pdfrwt beam="2">  1        2 0.18179867E-02 0.40622196E+02</pdfrwt>
<pdfrwt beam="1">  1       -2 0.53709288E-02 0.40622196E+02</pdfrwt>
<totfact> 0.70625160E+05</totfact>
</mgrwt>
</event>
<event>
 4    1  0.4696545E-002  0.6771989E+02  0.7818608E-02  0.1368023E+00
          2   -1    0    0    0  501  0.00000000000E+00  0.00000000000E+00  0.42097114166E+03  0.42097114167E+03  0.25500000000E-02 0. -1.
         -2   -1    0    0  501    0 -0.00000000000E+00 -0.00000000000E+00 -0.27234539606E+01  0.27234551544E+01  0.25500000000E-02 0. -1.
          2    1    1    2    0  502 -0.25050014783E+02  0.67483969033E+01  0.72987360919E+02  0.77460951207E+02  0.25500000000E-02 0. -1.
         -2    1    1    2  502    0  0.25050014783E+02 -0.67483969033E+01  0.34526032678E+03  0.34623364562E+03  0.25500000000E-02 0. -1.
<mgrwt>
<rscale>  0 0.67719887E+02</rscale>
<asrwt>0</asrwt>
<pdfrwt beam="1">  1        2 0.64764775E-01 0.67719887E+02</pdfrwt>
<pdfrwt beam="2">  1       -2 0.41899312E-03 0.67719887E+02</pdfrwt>
<totfact> 0.44185687E+05</totfact>
</mgrwt>
</event>
<event>
 4    1  0.4696545E-002  0.5199540E+02  0.7818608E-02  0.1434867E+00
          2   -1    0    0    0  501  0.00000000000E+00  0.00000000000E+00  0.45327233542E+02  0.45327233614E+02  0.25500000000E-02 0.  1.
         -2   -1    0    0  501    0 -0.00000000000E+00 -0.00000000000E+00 -0.14911132947E+02  0.14911133165E+02  0.25500000000E-02 0.  1.
          2    1    1    2    0  502  0.52811590014E+01 -0.24667196498E+02  0.79250178066E+01  0.26441768799E+02  0.25500000000E-02 0.  1.
         -2    1    1    2  502    0 -0.52811590014E+01  0.24667196498E+02  0.22491082788E+02  0.33796597979E+02  0.25500000000E-02 0.  1.
<mgrwt>
<rscale>  0 0.51995400E+02</rscale>
<asrwt>0</asrwt>
<pdfrwt beam="1">  1        2 0.69734206E-02 0.51995400E+02</pdfrwt>
<pdfrwt beam="2">  1       -2 0.22940205E-02 0.51995400E+02</pdfrwt>
<totfact> 0.45520719E+05</totfact>
</mgrwt>
</event>
<event>
 4    1  0.4696545E-002  0.6577244E+02  0.7818608E-02  0.1375089E+00
         -2   -1    0    0  501    0 -0.00000000000E+00  0.00000000000E+00  0.12289646900E+01  0.12289673355E+01  0.25500000000E-02 0.  1.
          2   -1    0    0    0  501  0.00000000000E+00 -0.00000000000E+00 -0.88001079886E+03  0.88001079886E+03  0.25500000000E-02 0.  1.
          2    1    1    2    0  502 -0.16297585359E+01 -0.30572675993E+02 -0.27852256028E+03  0.28020021632E+03  0.25500000000E-02 0.  1.
         -2    1    1    2  502    0  0.16297585359E+01  0.30572675993E+02 -0.60025927388E+03  0.60103954988E+03  0.25500000000E-02 0.  1.
<mgrwt>
<rscale>  0 0.65772437E+02</rscale>
<asrwt>0</asrwt>
<pdfrwt beam="2">  1        2 0.13538577E+00 0.65772437E+02</pdfrwt>
<pdfrwt beam="1">  1       -2 0.18907240E-03 0.65772437E+02</pdfrwt>
<totfact> 0.57619611E+05</totfact>
</mgrwt>
</event>
<event>
 4    1  0.4696545E-002  0.6974267E+02  0.7818608E-02  0.1360970E+00
         -2   -1    0    0  501    0 -0.00000000000E+00  0.00000000000E+00  0.96106620254E+00  0.96106958549E+00  0.25500000000E-02 0.  1.
          2   -1    0    0    0  501  0.00000000000E+00 -0.00000000000E+00 -0.12652696511E+04  0.12652696511E+04  0.25500000000E-02 0.  1.
          2    1    1    2    0  502  0.15688542276E+02  0.22753255808E+02 -0.24608551992E+03  0.24763263947E+03  0.25500000000E-02 0. -1.
         -2    1    1    2  502    0 -0.15688542276E+02 -0.22753255808E+02 -0.10182230650E+04  0.10185980812E+04  0.25500000000E-02 0. -1.
<mgrwt>
<rscale>  0 0.69742671E+02</rscale>
<asrwt>0</asrwt>
<pdfrwt beam="2">  1        2 0.19465554E+00 0.69742671E+02</pdfrwt>
<pdfrwt beam="1">  1       -2 0.14785761E-03 0.69742671E+02</pdfrwt>
<totfact> 0.49528646E+05</totfact>
</mgrwt>
</event>
<event>
 4    1  0.4696545E-002  0.4890878E+02  0.7818608E-02  0.1451318E+00
         -2   -1    0    0  501    0 -0.00000000000E+00  0.00000000000E+00  0.20504653627E+02  0.20504653785E+02  0.25500000000E-02 0.  1.
          2   -1    0    0    0  501  0.00000000000E+00 -0.00000000000E+00 -0.29164946303E+02  0.29164946415E+02  0.25500000000E-02 0.  1.
          2    1    1    2    0  502 -0.21806749067E+02  0.42623352598E+01  0.60422211379E+01  0.23026294742E+02  0.25500000000E-02 0.  1.
         -2    1    1    2  502    0  0.21806749067E+02 -0.42623352598E+01 -0.14702513815E+02  0.26643305458E+02  0.25500000000E-02 0.  1.
<mgrwt>
<rscale>  0 0.48908777E+02</rscale>
<asrwt>0</asrwt>
<pdfrwt beam="2">  1        2 0.44869149E-02 0.48908777E+02</pdfrwt>
<pdfrwt beam="1">  1       -2 0.31545621E-02 0.48908777E+02</pdfrwt>
<totfact> 0.49506195E+05</totfact>
</mgrwt>
</event>
<event>
 4    1  0.4696545E-002  0.4399644E+02  0.7818608E-02  0.1480706E+00
         -2   -1    0    0  501    0 -0.00000000000E+00  0.00000000000E+00  0.26517489869E+00  0.26518715918E+00  0.25500000000E-02 0. -1.
          2   -1    0    0    0  501  0.00000000000E+00 -0.00000000000E+00 -0.18248726895E+04  0.18248726895E+04  0.25500000000E-02 0. -1.
          2    1    1    2    0  502 -0.21214418631E+02  0.52269876279E+00 -0.11527552071E+04  0.11529505160E+04  0.25500000000E-02 0.  1.
         -2    1    1    2  502    0  0.21214418631E+02 -0.52269876279E+00 -0.67185230745E+03  0.67218736064E+03  0.25500000000E-02 0.  1.
<mgrwt>
<rscale>  0 0.43996437E+02</rscale>
<asrwt>0</asrwt>
<pdfrwt beam="2">  1        2 0.28073959E+00 0.43996437E+02</pdfrwt>
<pdfrwt beam="1">  1       -2 0.40798543E-04 0.43996437E+02</pdfrwt>
<totfact> 0.13582999E+06</totfact>
</mgrwt>
</event>
<event>
 4    1  0.4696545E-002  0.4864953E+02  0.7818608E-02  0.1452765E+00
         -2   -1    0    0  501    0 -0.00000000000E+00  0.00000000000E+00  0.77819503617E+00  0.77819921409E+00  0.25500000000E-02 0. -1.
          2   -1    0    0    0  501  0.00000000000E+00 -0.00000000000E+00 -0.76033982751E+03  0.76033982752E+03  0.25500000000E-02 0. -1.
          2    1    1    2    0  502 -0.22455260680E+02 -0.80390041811E+01 -0.45453332204E+03  0.45515865934E+03  0.25500000000E-02 0. -1.
         -2    1    1    2  502    0  0.22455260680E+02  0.80390041811E+01 -0.30502831044E+03  0.30595936739E+03  0.25500000000E-02 0. -1.
<mgrwt>
<rscale>  0 0.48649533E+02</rscale>
<asrwt>0</asrwt>
<pdfrwt beam="2">  1        2 0.11697476E+00 0.48649533E+02</pdfrwt>
<pdfrwt beam="1">  1       -2 0.11972324E-03 0.48649533E+02</pdfrwt>
<totfact> 0.11975181E+06</totfact>
</mgrwt>
</event>
<event>
 4    1  0.4696545E-002  0.2757834E+03  0.7818608E-02  0.1098014E+00
         -2   -1    0    0  501    0 -0.00000000000E+00  0.00000000000E+00  0.13286929730E+02  0.13286929975E+02  0.25500000000E-02 0. -1.
          2   -1    0    0    0  501  0.00000000000E+00 -0.00000000000E+00 -0.14310398659E+04  0.14310398659E+04  0.25500000000E-02 0. -1.
          2    1    1    2    0  502  0.13599572391E+03 -0.17881905746E+02 -0.63489925896E+03  0.64954727965E+03  0.25500000000E-02 0. -1.
         -2    1    1    2  502    0 -0.13599572391E+03  0.17881905746E+02 -0.78285367720E+03  0.79477951621E+03  0.25500000000E-02 0. -1.
<mgrwt>
<rscale>  0 0.27578344E+03</rscale>
<asrwt>0</asrwt>
<pdfrwt beam="2">  1        2 0.22015986E+00 0.27578344E+03</pdfrwt>
<pdfrwt beam="1">  1       -2 0.20441442E-02 0.27578344E+03</pdfrwt>
<totfact> 0.11126052E+04</totfact>
</mgrwt>
</event>
<event>
 4    1  0.4696545E-002  0.9585780E+02  0.7818608E-02  0.1289256E+00
          2   -1    0    0    0  501  0.00000000000E+00  0.00000000000E+00  0.25404790604E+02  0.25404790732E+02  0.25500000000E-02 0. -1.
         -2   -1    0    0  501    0 -0.00000000000E+00 -0.00000000000E+00 -0.90423077931E+02  0.90423077967E+02  0.25500000000E-02 0. -1.
          2    1    1    2    0  502 -0.18763801455E+02  0.39224327337E+02 -0.56872845354E+02  0.71590143492E+02  0.25500000000E-02 0.  1.
         -2    1    1    2  502    0  0.18763801455E+02 -0.39224327337E+02 -0.81454419741E+01  0.44237725207E+02  0.25500000000E-02 0.  1.
<mgrwt>
<rscale>  0 0.95857798E+02</rscale>
<asrwt>0</asrwt>
<pdfrwt beam="1">  1        2 0.39084294E-02 0.95857798E+02</pdfrwt>
<pdfrwt beam="2">  1       -2 0.13911243E-01 0.95857798E+02</pdfrwt>
<totfact> 0.72615034E+04</totfact>
</mgrwt>
</event>
<event>
 4    1  0.4696545E-002  0.7134837E+02  0.7818608E-02  0.1355567E+00
          2   -1    0    0    0  501  0.00000000000E+00  0.00000000000E+00  0.62004100475E+02  0.62004100528E+02  0.25500000000E-02 0.  1.
         -2   -1    0    0  501    0 -0.00000000000E+00 -0.00000000000E+00 -0.20525213027E+02  0.20525213185E+02  0.25500000000E-02 0.  1.
          2    1    1    2    0  502 -0.30052876464E+02 -0.12999643510E+01  0.42922402782E+02  0.52413719179E+02  0.25500000000E-02 0. -1.
         -2    1    1    2  502    0  0.30052876464E+02  0.12999643510E+01 -0.14435153332E+01  0.30115594534E+02  0.25500000000E-02 0. -1.
<mgrwt>
<rscale>  0 0.71348367E+02</rscale>
<asrwt>0</asrwt>
<pdfrwt beam="1">  1        2 0.95390923E-02 0.71348367E+02</pdfrwt>
<pdfrwt beam="2">  1       -2 0.31577251E-02 0.71348367E+02</pdfrwt>
<totfact> 0.21034141E+05</totfact>
</mgrwt>
</event>
<event>
 4    1  0.4696545E-002  0.7861796E+02  0.7818608E-02  0.1333020E+00
          2   -1    0    0    0  501  0.00000000000E+00  0.00000000000E+00  0.54435467391E+02  0.54435467451E+02  0.25500000000E-02 0. -1.
         -2   -1    0    0  501    0 -0.00000000000E+00 -0.00000000000E+00 -0.28385826546E+02  0.28385826661E+02  0.25500000000E-02 0. -1.
          2    1    1    2    0  502 -0.86580165134E+01  0.37518826205E+02  0.46916385466E+01  0.38789625526E+02  0.25500000000E-02 0. -1.
         -2    1    1    2  502    0  0.86580165134E+01 -0.37518826205E+02  0.21358002299E+02  0.44031668585E+02  0.25500000000E-02 0. -1.
<mgrwt>
<rscale>  0 0.78617956E+02</rscale>
<asrwt>0</asrwt>
<pdfrwt beam="1">  1        2 0.83746873E-02 0.78617956E+02</pdfrwt>
<pdfrwt beam="2">  1       -2 0.43670503E-02 0.78617956E+02</pdfrwt>
<totfact> 0.15645391E+05</totfact>
</mgrwt>
</event>
<event>
 4    1  0.4696545E-002  0.6216747E+02  0.7818608E-02  0.1388955E+00
         -2   -1    0    0  501    0 -0.00000000000E+00  0.00000000000E+00  0.46007141273E+01  0.46007148340E+01  0.25500000000E-02 0.  1.
          2   -1    0    0    0  501  0.00000000000E+00 -0.00000000000E+00 -0.21001052423E+03  0.21001052425E+03  0.25500000000E-02 0.  1.
          2    1    1    2    0  502 -0.25479245130E+02 -0.12734024375E+02 -0.14566314794E+03  0.14842203334E+03  0.25500000000E-02 0. -1.
         -2    1    1    2  502    0  0.25479245130E+02  0.12734024375E+02 -0.59746662168E+02  0.66189205735E+02  0.25500000000E-02 0. -1.
<mgrwt>
<rscale>  0 0.62167466E+02</rscale>
<asrwt>0</asrwt>
<pdfrwt beam="2">  1        2 0.32309304E-01 0.62167466E+02</pdfrwt>
<pdfrwt beam="1">  1       -2 0.70780239E-03 0.62167466E+02</pdfrwt>
<totfact> 0.43077400E+05</totfact>
</mgrwt>
</event>
<event>
 4    1  0.4696545E-002  0.4647853E+02  0.7818608E-02  0.1465317E+00
          2   -1    0    0    0  501  0.00000000000E+00  0.00000000000E+00  0.15942937848E+04  0.15942937848E+04  0.25500000000E-02 0.  1.
         -2   -1    0    0  501    0 -0.00000000000E+00 -0.00000000000E+00 -0.33874294437E+00  0.33875254222E+00  0.25500000000E-02 0.  1.
          2    1    1    2    0  502  0.29703457540E+01 -0.21762856119E+02  0.10574065763E+04  0.10576346782E+04  0.25500000000E-02 0. -1.
         -2    1    1    2  502    0 -0.29703457540E+01  0.21762856119E+02  0.53654846558E+03  0.53699785920E+03  0.25500000000E-02 0. -1.
<mgrwt>
<rscale>  0 0.46478529E+02</rscale>
<asrwt>0</asrwt>
<pdfrwt beam="1">  1        2 0.24527488E+00 0.46478529E+02</pdfrwt>
<pdfrwt beam="2">  1       -2 0.52115268E-04 0.46478529E+02</pdfrwt>
<totfact> 0.12806472E+06</totfact>
</mgrwt>
</event>
<event>
 4    1  0.4696545E-002  0.4292347E+02  0.7818608E-02  0.1487738E+00
         -2   -1    0    0  501    0 -0.00000000000E+00  0.00000000000E+00  0.13323945097E+01  0.13323969499E+01  0.25500000000E-02 0.  1.
          2   -1    0    0    0  501  0.00000000000E+00 -0.00000000000E+00 -0.34569763885E+03  0.34569763886E+03  0.25500000000E-02 0.  1.
          2    1    1    2    0  502 -0.11722916327E+02 -0.17605364267E+02 -0.20159020503E+03  0.20269678436E+03  0.25500000000E-02 0. -1.
         -2    1    1    2  502    0  0.11722916327E+02  0.17605364267E+02 -0.14277503930E+03  0.14433325145E+03  0.25500000000E-02 0. -1.
<mgrwt>
<rscale>  0 0.42923470E+02</rscale>
<asrwt>0</asrwt>
<pdfrwt beam="2">  1        2 0.53184181E-01 0.42923470E+02</pdfrwt>
<pdfrwt beam="1">  1       -2 0.20498424E-03 0.42923470E+02</pdfrwt>
<totfact> 0.12938176E+06</totfact>
</mgrwt>
</event>
<event>
 4    1  0.4696545E-002  0.4396241E+02  0.7818608E-02  0.1480925E+00
         -2   -1    0    0  501    0 -0.00000000000E+00  0.00000000000E+00  0.19108347322E+01  0.19108364337E+01  0.25500000000E-02 0. -1.
          2   -1    0    0    0  501  0.00000000000E+00 -0.00000000000E+00 -0.25285969770E+03  0.25285969771E+03  0.25500000000E-02 0. -1.
          2    1    1    2    0  502 -0.15136842678E+01  0.20909036583E+02 -0.87167276706E+02  0.89652736633E+02  0.25500000000E-02 0. -1.
         -2    1    1    2  502    0  0.15136842678E+01 -0.20909036583E+02 -0.16378158626E+03  0.16511779751E+03  0.25500000000E-02 0. -1.
<mgrwt>
<rscale>  0 0.43962407E+02</rscale>
<asrwt>0</asrwt>
<pdfrwt beam="2">  1        2 0.38901466E-01 0.43962407E+02</pdfrwt>
<pdfrwt beam="1">  1       -2 0.29397491E-03 0.43962407E+02</pdfrwt>
<totfact> 0.10960884E+06</totfact>
</mgrwt>
</event>
<event>
 4    1  0.4696545E-002  0.5452356E+02  0.7818608E-02  0.1422366E+00
          2   -1    0    0    0  501  0.00000000000E+00  0.00000000000E+00  0.26035997578E+01  0.26036010066E+01  0.25500000000E-02 0.  1.
         -2   -1    0    0  501    0 -0.00000000000E+00 -0.00000000000E+00 -0.28545263476E+03  0.28545263477E+03  0.25500000000E-02 0.  1.
          2    1    1    2    0  502  0.19314338484E+02  0.18497095901E+02 -0.11345954270E+03  0.11656866674E+03  0.25500000000E-02 0.  1.
         -2    1    1    2  502    0 -0.19314338484E+02 -0.18497095901E+02 -0.16938949230E+03  0.17148756904E+03  0.25500000000E-02 0.  1.
<mgrwt>
<rscale>  0 0.54523558E+02</rscale>
<asrwt>0</asrwt>
<pdfrwt beam="1">  1        2 0.40055413E-03 0.54523558E+02</pdfrwt>
<pdfrwt beam="2">  1       -2 0.43915765E-01 0.54523558E+02</pdfrwt>
<totfact> 0.19262372E+05</totfact>
</mgrwt>
</event>
<event>
 4    1  0.4696545E-002  0.4512518E+02  0.7818608E-02  0.1473562E+00
         -2   -1    0    0  501    0 -0.00000000000E+00  0.00000000000E+00  0.22576437482E+01  0.22576451883E+01  0.25500000000E-02 0.  1.
          2   -1    0    0    0  501  0.00000000000E+00 -0.00000000000E+00 -0.22548746782E+03  0.22548746784E+03  0.25500000000E-02 0.  1.
          2    1    1    2    0  502 -0.33561302561E+01  0.21491214712E+02 -0.14186917406E+03  0.14352699563E+03  0.25500000000E-02 0.  1.
         -2    1    1    2  502    0  0.33561302561E+01 -0.21491214712E+02 -0.81360650018E+02  0.84218117398E+02  0.25500000000E-02 0.  1.
<mgrwt>
<rscale>  0 0.45125183E+02</rscale>
<asrwt>0</asrwt>
<pdfrwt beam="2">  1        2 0.34690362E-01 0.45125183E+02</pdfrwt>
<pdfrwt beam="1">  1       -2 0.34733010E-03 0.45125183E+02</pdfrwt>
<totfact> 0.98880840E+05</totfact>
</mgrwt>
</event>
<event>
 4    1  0.4696545E-002  0.4739673E+02  0.7818608E-02  0.1459911E+00
         -2   -1    0    0  501    0 -0.00000000000E+00  0.00000000000E+00  0.91406351286E+01  0.91406354843E+01  0.25500000000E-02 0.  1.
          2   -1    0    0    0  501  0.00000000000E+00 -0.00000000000E+00 -0.61441305209E+02  0.61441305262E+02  0.25500000000E-02 0.  1.
          2    1    1    2    0  502  0.21992753067E+02  0.86919086538E+01 -0.23851938672E+02  0.33587876510E+02  0.25500000000E-02 0.  1.
         -2    1    1    2  502    0 -0.21992753067E+02 -0.86919086538E+01 -0.28448731409E+02  0.36994064237E+02  0.25500000000E-02 0.  1.
<mgrwt>
<rscale>  0 0.47396733E+02</rscale>
<asrwt>0</asrwt>
<pdfrwt beam="2">  1        2 0.94525083E-02 0.47396733E+02</pdfrwt>
<pdfrwt beam="1">  1       -2 0.14062516E-02 0.47396733E+02</pdfrwt>
<totfact> 0.61246219E+05</totfact>
</mgrwt>
</event>
<event>
 4    1  0.4696545E-002  0.4835395E+02  0.7818608E-02  0.1454428E+00
          2   -1    0    0    0  501  0.00000000000E+00  0.00000000000E+00  0.33233031371E+03  0.33233031372E+03  0.25500000000E-02 0.  1.
         -2   -1    0    0  501    0 -0.00000000000E+00 -0.00000000000E+00 -0.17588696988E+01  0.17588715473E+01  0.25500000000E-02 0.  1.
          2    1    1    2    0  502  0.93867699441E+01 -0.22117584064E+02  0.14671148597E+03  0.14866593119E+03  0.25500000000E-02 0.  1.
         -2    1    1    2  502    0 -0.93867699441E+01  0.22117584064E+02  0.18385995804E+03  0.18542325408E+03  0.25500000000E-02 0.  1.
<mgrwt>
<rscale>  0 0.48353946E+02</rscale>
<asrwt>0</asrwt>
<pdfrwt beam="1">  1        2 0.51127720E-01 0.48353946E+02</pdfrwt>
<pdfrwt beam="2">  1       -2 0.27059559E-03 0.48353946E+02</pdfrwt>
<totfact> 0.95252296E+05</totfact>
</mgrwt>
</event>
<event>
 4    1  0.4696545E-002  0.4284645E+02  0.7818608E-02  0.1488252E+00
          2   -1    0    0    0  501  0.00000000000E+00  0.00000000000E+00  0.31796567397E+03  0.31796567398E+03  0.25500000000E-02 0. -1.
         -2   -1    0    0  501    0 -0.00000000000E+00 -0.00000000000E+00 -0.14434078730E+01  0.14434101255E+01  0.25500000000E-02 0. -1.
          2    1    1    2    0  502 -0.16713868789E+02 -0.12859593564E+02  0.18638433275E+03  0.18757356439E+03  0.25500000000E-02 0.  1.
         -2    1    1    2  502    0  0.16713868789E+02  0.12859593564E+02  0.13013793334E+03  0.13183551971E+03  0.25500000000E-02 0.  1.
<mgrwt>
<rscale>  0 0.42846448E+02</rscale>
<asrwt>0</asrwt>
<pdfrwt beam="1">  1        2 0.48917889E-01 0.42846448E+02</pdfrwt>
<pdfrwt beam="2">  1       -2 0.22206250E-03 0.42846448E+02</pdfrwt>
<totfact> 0.12628792E+06</totfact>
</mgrwt>
</event>
<event>
 4    1  0.4696545E-002  0.5662849E+02  0.7818608E-02  0.1412551E+00
          2   -1    0    0    0  501  0.00000000000E+00  0.00000000000E+00  0.11692223067E+04  0.11692223067E+04  0.25500000000E-02 0.  1.
         -2   -1    0    0  501    0 -0.00000000000E+00 -0.00000000000E+00 -0.68566401995E+00  0.68566876169E+00  0.25500000000E-02 0.  1.
          2    1    1    2    0  502 -0.28845838910E+01  0.20901596555E+02  0.97434124769E+03  0.97456968172E+03  0.25500000000E-02 0. -1.
         -2    1    1    2  502    0  0.28845838910E+01 -0.20901596555E+02  0.19419539495E+03  0.19533829371E+03  0.25500000000E-02 0. -1.
<mgrwt>
<rscale>  0 0.56628489E+02</rscale>
<asrwt>0</asrwt>
<pdfrwt beam="1">  1        2 0.17987787E+00 0.56628489E+02</pdfrwt>
<pdfrwt beam="2">  1       -2 0.10548860E-03 0.56628489E+02</pdfrwt>
<totfact> 0.84750136E+05</totfact>
</mgrwt>
</event>
<event>
 4    1  0.4696545E-002  0.6609584E+02  0.7818608E-02  0.1373896E+00
          2   -1    0    0    0  501  0.00000000000E+00  0.00000000000E+00  0.10048109306E+04  0.10048109306E+04  0.25500000000E-02 0. -1.
         -2   -1    0    0  501    0 -0.00000000000E+00 -0.00000000000E+00 -0.10869344902E+01  0.10869374814E+01  0.25500000000E-02 0. -1.
          2    1    1    2    0  502 -0.12538868858E+01  0.23155617914E+02  0.14352193098E+03  0.14538328499E+03  0.25500000000E-02 0.  1.
         -2    1    1    2  502    0  0.12538868858E+01 -0.23155617914E+02  0.86020206511E+03  0.86051458308E+03  0.25500000000E-02 0.  1.
<mgrwt>
<rscale>  0 0.66095844E+02</rscale>
<asrwt>0</asrwt>
<pdfrwt beam="1">  1        2 0.15458639E+00 0.66095844E+02</pdfrwt>
<pdfrwt beam="2">  1       -2 0.16722082E-03 0.66095844E+02</pdfrwt>
<totfact> 0.57529572E+05</totfact>
</mgrwt>
</event>
<event>
 4    1  0.4696545E-002  0.5147236E+02  0.7818608E-02  0.1437558E+00
          2   -1    0    0    0  501  0.00000000000E+00  0.00000000000E+00  0.29654799520E+03  0.29654799522E+03  0.25500000000E-02 0.  1.
         -2   -1    0    0  501    0 -0.00000000000E+00 -0.00000000000E+00 -0.22335365787E+01  0.22335380343E+01  0.25500000000E-02 0.  1.
          2    1    1    2    0  502 -0.24316161361E+02 -0.54941921664E+01  0.11003930106E+03  0.11282778751E+03  0.25500000000E-02 0. -1.
         -2    1    1    2  502    0  0.24316161361E+02  0.54941921664E+01  0.18427515757E+03  0.18595374574E+03  0.25500000000E-02 0. -1.
<mgrwt>
<rscale>  0 0.51472362E+02</rscale>
<asrwt>0</asrwt>
<pdfrwt beam="1">  1        2 0.45622755E-01 0.51472362E+02</pdfrwt>
<pdfrwt beam="2">  1       -2 0.34362123E-03 0.51472362E+02</pdfrwt>
<totfact> 0.78372061E+05</totfact>
</mgrwt>
</event>
<event>
 4    1  0.4696545E-002  0.4749285E+02  0.7818608E-02  0.1459353E+00
          2   -1    0    0    0  501  0.00000000000E+00  0.00000000000E+00  0.14992726712E+04  0.14992726712E+04  0.25500000000E-02 0. -1.
         -2   -1    0    0  501    0 -0.00000000000E+00 -0.00000000000E+00 -0.37610649893E+00  0.37611514333E+00  0.25500000000E-02 0. -1.
          2    1    1    2    0  502 -0.13754728368E+02 -0.17198907350E+02  0.46897369099E+03  0.46949048746E+03  0.25500000000E-02 0. -1.
         -2    1    1    2  502    0  0.13754728368E+02  0.17198907350E+02  0.10299228738E+04  0.10301582989E+04  0.25500000000E-02 0. -1.
<mgrwt>
<rscale>  0 0.47492849E+02</rscale>
<asrwt>0</asrwt>
<pdfrwt beam="1">  1        2 0.23065804E+00 0.47492849E+02</pdfrwt>
<pdfrwt beam="2">  1       -2 0.57863027E-04 0.47492849E+02</pdfrwt>
<totfact> 0.12447864E+06</totfact>
</mgrwt>
</event>
<event>
 4    1  0.4696545E-002  0.5069363E+02  0.7818608E-02  0.1441636E+00
         -2   -1    0    0  501    0 -0.00000000000E+00  0.00000000000E+00  0.39511455241E+01  0.39511463469E+01  0.25500000000E-02 0.  1.
          2   -1    0    0    0  501  0.00000000000E+00 -0.00000000000E+00 -0.16260120983E+03  0.16260120985E+03  0.25500000000E-02 0.  1.
          2    1    1    2    0  502  0.33852254601E+01  0.24998619889E+02 -0.87419802423E+02  0.90986881527E+02  0.25500000000E-02 0. -1.
         -2    1    1    2  502    0 -0.33852254601E+01 -0.24998619889E+02 -0.71230261887E+02  0.75565474674E+02  0.25500000000E-02 0. -1.
<mgrwt>
<rscale>  0 0.50693633E+02</rscale>
<asrwt>0</asrwt>
<pdfrwt beam="2">  1        2 0.25015566E-01 0.50693633E+02</pdfrwt>
<pdfrwt beam="1">  1       -2 0.60786873E-03 0.50693633E+02</pdfrwt>
<totfact> 0.66511716E+05</totfact>
</mgrwt>
</event>
<event>
 4    1  0.4696545E-002  0.8185884E+02  0.7818608E-02  0.1323858E+00
          2   -1    0    0    0  501  0.00000000000E+00  0.00000000000E+00  0.26529397444E+03  0.26529397446E+03  0.25500000000E-02 0.  1.
         -2   -1    0    0  501    0 -0.00000000000E+00 -0.00000000000E+00 -0.63145701395E+01  0.63145706544E+01  0.25500000000E-02 0.  1.
          2    1    1    2    0  502 -0.23654760920E+02 -0.31770837151E+02  0.95283008345E+02  0.10318810732E+03  0.25500000000E-02 0.  1.
         -2    1    1    2  502    0  0.23654760920E+02  0.31770837151E+02  0.16369639596E+03  0.16842043778E+03  0.25500000000E-02 0.  1.
<mgrwt>
<rscale>  0 0.81858841E+02</rscale>
<asrwt>0</asrwt>
<pdfrwt beam="1">  1        2 0.40814475E-01 0.81858841E+02</pdfrwt>
<pdfrwt beam="2">  1       -2 0.97147195E-03 0.81858841E+02</pdfrwt>
<totfact> 0.22853421E+05</totfact>
</mgrwt>
</event>
<event>
 4    1  0.4696545E-002  0.5225002E+02  0.7818608E-02  0.1433570E+00
         -2   -1    0    0  501    0 -0.00000000000E+00  0.00000000000E+00  0.54851439795E+02  0.54851439854E+02  0.25500000000E-02 0. -1.
          2   -1    0    0    0  501  0.00000000000E+00 -0.00000000000E+00 -0.12442993695E+02  0.12442993956E+02  0.25500000000E-02 0. -1.
          2    1    1    2    0  502 -0.16093690375E+02 -0.19351281704E+02  0.12185287151E+02  0.27963551328E+02  0.25500000000E-02 0.  1.
         -2    1    1    2  502    0  0.16093690375E+02  0.19351281704E+02  0.30223158949E+02  0.39330882482E+02  0.25500000000E-02 0.  1.
<mgrwt>
<rscale>  0 0.52250019E+02</rscale>
<asrwt>0</asrwt>
<pdfrwt beam="2">  1        2 0.19143068E-02 0.52250019E+02</pdfrwt>
<pdfrwt beam="1">  1       -2 0.84386830E-02 0.52250019E+02</pdfrwt>
<totfact> 0.36071379E+05</totfact>
</mgrwt>
</event>
<event>
 4    1  0.4696545E-002  0.7714936E+02  0.7818608E-02  0.1337341E+00
         -2   -1    0    0  501    0 -0.00000000000E+00  0.00000000000E+00  0.10483684933E+01  0.10483715946E+01  0.25500000000E-02 0.  1.
          2   -1    0    0    0  501  0.00000000000E+00 -0.00000000000E+00 -0.14193519893E+04  0.14193519893E+04  0.25500000000E-02 0.  1.
          2    1    1    2    0  502 -0.73287186327E+01  0.37848509252E+02 -0.68454474383E+03  0.68562943788E+03  0.25500000000E-02 0. -1.
         -2    1    1    2  502    0  0.73287186327E+01 -0.37848509252E+02 -0.73375887698E+03  0.73477092302E+03  0.25500000000E-02 0. -1.
<mgrwt>
<rscale>  0 0.77149364E+02</rscale>
<asrwt>0</asrwt>
<pdfrwt beam="2">  1        2 0.21836031E+00 0.77149364E+02</pdfrwt>
<pdfrwt beam="1">  1       -2 0.16128884E-03 0.77149364E+02</pdfrwt>
<totfact> 0.37199270E+05</totfact>
</mgrwt>
</event>
<event>
 4    1  0.4696545E-002  0.6396037E+02  0.7818608E-02  0.1381925E+00
          2   -1    0    0    0  501  0.00000000000E+00  0.00000000000E+00  0.44926895165E+03  0.44926895166E+03  0.25500000000E-02 0.  1.
         -2   -1    0    0  501    0 -0.00000000000E+00 -0.00000000000E+00 -0.22764355825E+01  0.22764370107E+01  0.25500000000E-02 0.  1.
          2    1    1    2    0  502  0.10010813315E+02 -0.29675899413E+02  0.26917069945E+03  0.27098660639E+03  0.25500000000E-02 0.  1.
         -2    1    1    2  502    0 -0.10010813315E+02  0.29675899413E+02  0.17782181662E+03  0.18055878228E+03  0.25500000000E-02 0.  1.
<mgrwt>
<rscale>  0 0.63960367E+02</rscale>
<asrwt>0</asrwt>
<pdfrwt beam="1">  1        2 0.69118317E-01 0.63960367E+02</pdfrwt>
<pdfrwt beam="2">  1       -2 0.35022089E-03 0.63960367E+02</pdfrwt>
<totfact> 0.52275488E+05</totfact>
</mgrwt>
</event>
<event>
 4    1  0.4696545E-002  0.4163779E+02  0.7818608E-02  0.1496494E+00
          2   -1    0    0    0  501  0.00000000000E+00  0.00000000000E+00  0.21421561615E+04  0.21421561615E+04  0.25500000000E-02 0.  1.
         -2   -1    0    0  501    0 -0.00000000000E+00 -0.00000000000E+00 -0.20232381982E+00  0.20233988872E+00  0.25500000000E-02 0.  1.
          2    1    1    2    0  502  0.18506421877E+02 -0.94246406022E+01  0.99615104031E+03  0.99636750581E+03  0.25500000000E-02 0. -1.
         -2    1    1    2  502    0 -0.18506421877E+02  0.94246406022E+01  0.11458027974E+04  0.11459909956E+04  0.25500000000E-02 0. -1.
<mgrwt>
<rscale>  0 0.41637792E+02</rscale>
<asrwt>0</asrwt>
<pdfrwt beam="1">  1        2 0.32958906E+00 0.41637792E+02</pdfrwt>
<pdfrwt beam="2">  1       -2 0.31125468E-04 0.41637792E+02</pdfrwt>
<totfact> 0.13539039E+06</totfact>
</mgrwt>
</event>
<event>
 4    1  0.4696545E-002  0.6199368E+02  0.7818608E-02  0.1389651E+00
          2   -1    0    0    0  501  0.00000000000E+00  0.00000000000E+00  0.25287705487E+04  0.25287705487E+04  0.25500000000E-02 0. -1.
         -2   -1    0    0  501    0 -0.00000000000E+00 -0.00000000000E+00 -0.37994486367E+00  0.37995342073E+00  0.25500000000E-02 0. -1.
          2    1    1    2    0  502  0.78022898902E+01 -0.25514707346E+02  0.62052382919E+03  0.62109717325E+03  0.25500000000E-02 0.  1.
         -2    1    1    2  502    0 -0.78022898902E+01  0.25514707346E+02  0.19078667746E+04  0.19080533288E+04  0.25500000000E-02 0.  1.
<mgrwt>
<rscale>  0 0.61993684E+02</rscale>
<asrwt>0</asrwt>
<pdfrwt beam="1">  1        2 0.38905111E+00 0.61993684E+02</pdfrwt>
<pdfrwt beam="2">  1       -2 0.58452289E-04 0.61993684E+02</pdfrwt>
<totfact> 0.39878814E+05</totfact>
</mgrwt>
</event>
<event>
 4    1  0.4696545E-002  0.2545387E+03  0.7818608E-02  0.1110470E+00
          2   -1    0    0    0  501  0.00000000000E+00  0.00000000000E+00  0.42428075575E+03  0.42428075576E+03  0.25500000000E-02 0. -1.
         -2   -1    0    0  501    0 -0.00000000000E+00 -0.00000000000E+00 -0.38176339664E+02  0.38176339750E+02  0.25500000000E-02 0. -1.
          2    1    1    2    0  502 -0.87009769783E+02 -0.74247673771E+02  0.29443909030E+03  0.31587623367E+03  0.25500000000E-02 0.  1.
         -2    1    1    2  502    0  0.87009769783E+02  0.74247673771E+02  0.91665325791E+02  0.14658086184E+03  0.25500000000E-02 0.  1.
<mgrwt>
<rscale>  0 0.25453869E+03</rscale>
<asrwt>0</asrwt>
<pdfrwt beam="1">  1        2 0.65273960E-01 0.25453869E+03</pdfrwt>
<pdfrwt beam="2">  1       -2 0.58732832E-02 0.25453869E+03</pdfrwt>
<totfact> 0.11313027E+04</totfact>
</mgrwt>
</event>
<event>
 4    1  0.4696545E-002  0.4571693E+02  0.7818608E-02  0.1469915E+00
         -2   -1    0    0  501    0 -0.00000000000E+00  0.00000000000E+00  0.34526058665E+00  0.34527000332E+00  0.25500000000E-02 0.  1.
          2   -1    0    0    0  501  0.00000000000E+00 -0.00000000000E+00 -0.15133562296E+04  0.15133562296E+04  0.25500000000E-02 0.  1.
          2    1    1    2    0  502  0.15409217793E+02 -0.16506296293E+02 -0.87407071957E+03  0.87436235316E+03  0.25500000000E-02 0. -1.
         -2    1    1    2  502    0 -0.15409217793E+02  0.16506296293E+02 -0.63894024948E+03  0.63933914648E+03  0.25500000000E-02 0. -1.
<mgrwt>
<rscale>  0 0.45716929E+02</rscale>
<asrwt>0</asrwt>
<pdfrwt beam="2">  1        2 0.23281872E+00 0.45716929E+02</pdfrwt>
<pdfrwt beam="1">  1       -2 0.53118950E-04 0.45716929E+02</pdfrwt>
<totfact> 0.13624474E+06</totfact>
</mgrwt>
</event>
<event>
 4    1  0.4696545E-002  0.4666977E+02  0.7818608E-02  0.1464179E+00
          2   -1    0    0    0  501  0.00000000000E+00  0.00000000000E+00  0.24118404220E+01  0.24118417700E+01  0.25500000000E-02 0.  1.
         -2   -1    0    0  501    0 -0.00000000000E+00 -0.00000000000E+00 -0.22576808950E+03  0.22576808951E+03  0.25500000000E-02 0.  1.
          2    1    1    2    0  502 -0.21346500904E+02  0.15296068318E+01 -0.66204475422E+02  0.69577621189E+02  0.25500000000E-02 0. -1.
         -2    1    1    2  502    0  0.21346500904E+02 -0.15296068318E+01 -0.15715177365E+03  0.15860231009E+03  0.25500000000E-02 0. -1.
<mgrwt>
<rscale>  0 0.46669766E+02</rscale>
<asrwt>0</asrwt>
<pdfrwt beam="1">  1        2 0.37105266E-03 0.46669766E+02</pdfrwt>
<pdfrwt beam="2">  1       -2 0.34733536E-01 0.46669766E+02</pdfrwt>
<totfact> 0.31683453E+05</totfact>
</mgrwt>
</event>
<event>
 4    1  0.4696545E-002  0.6168910E+02  0.7818608E-02  0.1390877E+00
          2   -1    0    0    0  501  0.00000000000E+00  0.00000000000E+00  0.54626630437E+01  0.54626636389E+01  0.25500000000E-02 0.  1.
         -2   -1    0    0  501    0 -0.00000000000E+00 -0.00000000000E+00 -0.17416158991E+03  0.17416158993E+03  0.25500000000E-02 0.  1.
          2    1    1    2    0  502 -0.29383600176E+02  0.57984006380E+01 -0.62879508801E+02  0.69648044070E+02  0.25500000000E-02 0. -1.
         -2    1    1    2  502    0  0.29383600176E+02 -0.57984006380E+01 -0.10581941807E+03  0.10997620950E+03  0.25500000000E-02 0. -1.
<mgrwt>
<rscale>  0 0.61689096E+02</rscale>
<asrwt>0</asrwt>
<pdfrwt beam="1">  1        2 0.84040988E-03 0.61689096E+02</pdfrwt>
<pdfrwt beam="2">  1       -2 0.26794087E-01 0.61689096E+02</pdfrwt>
<totfact> 0.17691644E+05</totfact>
</mgrwt>
</event>
<event>
 4    1  0.4696545E-002  0.4272874E+02  0.7818608E-02  0.1489040E+00
          2   -1    0    0    0  501  0.00000000000E+00  0.00000000000E+00  0.40007961950E+03  0.40007961951E+03  0.25500000000E-02 0.  1.
         -2   -1    0    0  501    0 -0.00000000000E+00 -0.00000000000E+00 -0.11408620394E+01  0.11408648892E+01  0.25500000000E-02 0.  1.
          2    1    1    2    0  502  0.20058049138E+02  0.38129291178E+01  0.25853836812E+03  0.25934330830E+03  0.25500000000E-02 0. -1.
         -2    1    1    2  502    0 -0.20058049138E+02 -0.38129291178E+01  0.14040038934E+03  0.14187717610E+03  0.25500000000E-02 0. -1.
<mgrwt>
<rscale>  0 0.42728736E+02</rscale>
<asrwt>0</asrwt>
<pdfrwt beam="1">  1        2 0.61550752E-01 0.42728736E+02</pdfrwt>
<pdfrwt beam="2">  1       -2 0.17551734E-03 0.42728736E+02</pdfrwt>
<totfact> 0.13743328E+06</totfact>
</mgrwt>
</event>
<event>
 4    1  0.4696545E-002  0.6372426E+02  0.7818608E-02  0.1382836E+00
          2   -1    0    0    0  501  0.00000000000E+00  0.00000000000E+00  0.71552292797E+03  0.71552292798E+03  0.25500000000E-02 0.  1.
         -2   -1    0    0  501    0 -0.00000000000E+00 -0.00000000000E+00 -0.14188148041E+01  0.14188170956E+01  0.25500000000E-02 0.  1.
          2    1    1    2    0  502  0.92165241997E+01 -0.30419539319E+02  0.38196324547E+03  0.38328346375E+03  0.25500000000E-02 0. -1.
         -2    1    1    2  502    0 -0.92165241997E+01  0.30419539319E+02  0.33214086770E+03  0.33365828132E+03  0.25500000000E-02 0. -1.
<mgrwt>
<rscale>  0 0.63724261E+02</rscale>
<asrwt>0</asrwt>
<pdfrwt beam="1">  1        2 0.11008012E+00 0.63724261E+02</pdfrwt>
<pdfrwt beam="2">  1       -2 0.21828003E-03 0.63724261E+02</pdfrwt>
<totfact> 0.60243229E+05</totfact>
</mgrwt>
</event>
<event>
 4    1  0.4696545E-002  0.5876673E+02  0.7818608E-02  0.1403081E+00
          2   -1    0    0    0  501  0.00000000000E+00  0.00000000000E+00  0.93834882198E+03  0.93834882199E+03  0.25500000000E-02 0. -1.
         -2   -1    0    0  501    0 -0.00000000000E+00 -0.00000000000E+00 -0.92010599975E+00  0.92010953331E+00  0.25500000000E-02 0. -1.
          2    1    1    2    0  502  0.24795376934E+02 -0.11533728521E+02  0.29691048372E+03  0.29816718961E+03  0.25500000000E-02 0.  1.
         -2    1    1    2  502    0 -0.24795376934E+02  0.11533728521E+02  0.64051823227E+03  0.64110174191E+03  0.25500000000E-02 0.  1.
<mgrwt>
<rscale>  0 0.58766727E+02</rscale>
<asrwt>0</asrwt>
<pdfrwt beam="1">  1        2 0.14436169E+00 0.58766727E+02</pdfrwt>
<pdfrwt beam="2">  1       -2 0.14155472E-03 0.58766727E+02</pdfrwt>
<totfact> 0.77119973E+05</totfact>
</mgrwt>
</event>
<event>
 4    1  0.4696545E-002  0.4773010E+02  0.7818608E-02  0.1457984E+00
         -2   -1    0    0  501    0 -0.00000000000E+00  0.00000000000E+00  0.23362014942E+01  0.23362028859E+01  0.25500000000E-02 0. -1.
          2   -1    0    0    0  501  0.00000000000E+00 -0.00000000000E+00 -0.24378907420E+03  0.24378907422E+03  0.25500000000E-02 0. -1.
          2    1    1    2    0  502  0.11494416637E+02 -0.20891485485E+02 -0.11566143650E+03  0.11809379187E+03  0.25500000000E-02 0. -1.
         -2    1    1    2  502    0 -0.11494416637E+02  0.20891485485E+02 -0.12579143621E+03  0.12803148523E+03  0.25500000000E-02 0. -1.
<mgrwt>
<rscale>  0 0.47730098E+02</rscale>
<asrwt>0</asrwt>
<pdfrwt beam="2">  1        2 0.37505991E-01 0.47730098E+02</pdfrwt>
<pdfrwt beam="1">  1       -2 0.35941592E-03 0.47730098E+02</pdfrwt>
<totfact> 0.88362040E+05</totfact>
</mgrwt>
</event>
<event>
 4    1  0.4696545E-002  0.1295654E+03  0.7818608E-02  0.1228102E+00
         -2   -1    0    0  501    0 -0.00000000000E+00  0.00000000000E+00  0.20105348916E+02  0.20105349078E+02  0.25500000000E-02 0.  1.
          2   -1    0    0    0  501  0.00000000000E+00 -0.00000000000E+00 -0.20874039972E+03  0.20874039974E+03  0.25500000000E-02 0.  1.
          2    1    1    2    0  502  0.34527853595E+01 -0.29793730571E+02 -0.19573834720E+03  0.19802294988E+03  0.25500000000E-02 0. -1.
         -2    1    1    2  502    0 -0.34527853595E+01  0.29793730571E+02  0.71032963936E+01  0.30822798936E+02  0.25500000000E-02 0. -1.
<mgrwt>
<rscale>  0 0.12956541E+03</rscale>
<asrwt>0</asrwt>
<pdfrwt beam="2">  1        2 0.32113906E-01 0.12956541E+03</pdfrwt>
<pdfrwt beam="1">  1       -2 0.30931308E-02 0.12956541E+03</pdfrwt>
<totfact> 0.59764842E+04</totfact>
</mgrwt>
</event>
<event>
 4    1  0.4696545E-002  0.5073386E+02  0.7818608E-02  0.1441423E+00
          2   -1    0    0    0  501  0.00000000000E+00  0.00000000000E+00  0.10493787779E+03  0.10493787783E+03  0.25500000000E-02 0. -1.
         -2   -1    0    0  501    0 -0.00000000000E+00 -0.00000000000E+00 -0.61320190632E+01  0.61320195934E+01  0.25500000000E-02 0. -1.
          2    1    1    2    0  502  0.22429786291E+02 -0.10947844575E+02  0.59322617234E+02  0.64359331382E+02  0.25500000000E-02 0. -1.
         -2    1    1    2  502    0 -0.22429786291E+02  0.10947844575E+02  0.39483241497E+02  0.46710566037E+02  0.25500000000E-02 0. -1.
<mgrwt>
<rscale>  0 0.50733858E+02</rscale>
<asrwt>0</asrwt>
<pdfrwt beam="1">  1        2 0.16144290E-01 0.50733858E+02</pdfrwt>
<pdfrwt beam="2">  1       -2 0.94338750E-03 0.50733858E+02</pdfrwt>
<totfact> 0.58442034E+05</totfact>
</mgrwt>
</event>
<event>
 4    1  0.4696545E-002  0.5154050E+02  0.7818608E-02  0.1437205E+00
          2   -1    0    0    0  501  0.00000000000E+00  0.00000000000E+00  0.52579280265E+01  0.52579286448E+01  0.25500000000E-02 0. -1.
         -2   -1    0    0  501    0 -0.00000000000E+00 -0.00000000000E+00 -0.12630558254E+03  0.12630558257E+03  0.25500000000E-02 0. -1.
          2    1    1    2    0  502  0.12598149770E+02  0.22403930594E+02 -0.65269384328E+02  0.70148000833E+02  0.25500000000E-02 0. -1.
         -2    1    1    2  502    0 -0.12598149770E+02 -0.22403930594E+02 -0.55778270189E+02  0.61415510382E+02  0.25500000000E-02 0. -1.
<mgrwt>
<rscale>  0 0.51540497E+02</rscale>
<asrwt>0</asrwt>
<pdfrwt beam="1">  1        2 0.80891215E-03 0.51540497E+02</pdfrwt>
<pdfrwt beam="2">  1       -2 0.19431626E-01 0.51540497E+02</pdfrwt>
<totfact> 0.30744975E+05</totfact>
</mgrwt>
</event>
<event>
 4    1  0.4696545E-002  0.5555703E+02  0.7818608E-02  0.1417483E+00
         -2   -1    0    0  501    0 -0.00000000000E+00  0.00000000000E+00  0.17048490200E+03  0.17048490202E+03  0.25500000000E-02 0.  1.
          2   -1    0    0    0  501  0.00000000000E+00 -0.00000000000E+00 -0.45261826207E+01  0.45261833390E+01  0.25500000000E-02 0.  1.
          2    1    1    2    0  502  0.70216208547E+01 -0.22338707278E+02  0.13005487443E+03  0.13214609859E+03  0.25500000000E-02 0.  1.
         -2    1    1    2  502    0 -0.70216208547E+01  0.22338707278E+02  0.35903844952E+02  0.42864986774E+02  0.25500000000E-02 0.  1.
<mgrwt>
<rscale>  0 0.55557029E+02</rscale>
<asrwt>0</asrwt>
<pdfrwt beam="2">  1        2 0.69633585E-03 0.55557029E+02</pdfrwt>
<pdfrwt beam="1">  1       -2 0.26228446E-01 0.55557029E+02</pdfrwt>
<totfact> 0.23133922E+05</totfact>
</mgrwt>
</event>
<event>
 4    1  0.4696545E-002  0.5062309E+02  0.7818608E-02  0.1442009E+00
          2   -1    0    0    0  501  0.00000000000E+00  0.00000000000E+00  0.73498480963E+03  0.73498480963E+03  0.25500000000E-02 0. -1.
         -2   -1    0    0  501    0 -0.00000000000E+00 -0.00000000000E+00 -0.87168178681E+00  0.87168551666E+00  0.25500000000E-02 0. -1.
          2    1    1    2    0  502 -0.23803669052E+02  0.31667611619E+01  0.48337279705E+03  0.48396890806E+03  0.25500000000E-02 0. -1.
         -2    1    1    2  502    0  0.23803669052E+02 -0.31667611619E+01  0.25074033080E+03  0.25188758709E+03  0.25500000000E-02 0. -1.
<mgrwt>
<rscale>  0 0.50623087E+02</rscale>
<asrwt>0</asrwt>
<pdfrwt beam="1">  1        2 0.11307424E+00 0.50623087E+02</pdfrwt>
<pdfrwt beam="2">  1       -2 0.13410558E-03 0.50623087E+02</pdfrwt>
<totfact> 0.10784129E+06</totfact>
</mgrwt>
</event>
<event>
 4    1  0.4696545E-002  0.1263180E+03  0.7818608E-02  0.1233024E+00
         -2   -1    0    0  501    0 -0.00000000000E+00  0.00000000000E+00  0.21455626634E+03  0.21455626636E+03  0.25500000000E-02 0. -1.
          2   -1    0    0    0  501  0.00000000000E+00 -0.00000000000E+00 -0.18592147074E+02  0.18592147249E+02  0.25500000000E-02 0. -1.
          2    1    1    2    0  502 -0.43646524356E+02 -0.43021727071E+02  0.69797791001E+02  0.92884981152E+02  0.25500000000E-02 0. -1.
         -2    1    1    2  502    0  0.43646524356E+02  0.43021727071E+02  0.12616632827E+03  0.14026343245E+03  0.25500000000E-02 0. -1.
<mgrwt>
<rscale>  0 0.12631804E+03</rscale>
<asrwt>0</asrwt>
<pdfrwt beam="2">  1        2 0.28603302E-02 0.12631804E+03</pdfrwt>
<pdfrwt beam="1">  1       -2 0.33008658E-01 0.12631804E+03</pdfrwt>
<totfact> 0.26167057E+04</totfact>
</mgrwt>
</event>
<event>
 4    1  0.4696545E-002  0.4772105E+02  0.7818608E-02  0.1458036E+00
          2   -1    0    0    0  501  0.00000000000E+00  0.00000000000E+00  0.52186193532E+01  0.52186199762E+01  0.25500000000E-02 0.  1.
         -2   -1    0    0  501    0 -0.00000000000E+00 -0.00000000000E+00 -0.10909486322E+03  0.10909486325E+03  0.25500000000E-02 0.  1.
          2    1    1    2    0  502 -0.17082704877E+02 -0.16532873724E+02 -0.47046543152E+02  0.52711781876E+02  0.25500000000E-02 0.  1.
         -2    1    1    2  502    0  0.17082704877E+02  0.16532873724E+02 -0.56829700719E+02  0.61601701355E+02  0.25500000000E-02 0.  1.
<mgrwt>
<rscale>  0 0.47721048E+02</rscale>
<asrwt>0</asrwt>
<pdfrwt beam="1">  1        2 0.80286464E-03 0.47721048E+02</pdfrwt>
<pdfrwt beam="2">  1       -2 0.16783824E-01 0.47721048E+02</pdfrwt>
<totfact> 0.38664157E+05</totfact>
</mgrwt>
</event>
<event>
 4    1  0.4696545E-002  0.4192128E+02  0.7818608E-02  0.1494531E+00
          2   -1    0    0    0  501  0.00000000000E+00  0.00000000000E+00  0.14807250944E+04  0.14807250944E+04  0.25500000000E-02 0.  1.
         -2   -1    0    0  501    0 -0.00000000000E+00 -0.00000000000E+00 -0.29670622308E+00  0.29671718069E+00  0.25500000000E-02 0.  1.
          2    1    1    2    0  502  0.13030847444E+02  0.16171590537E+02  0.84029551919E+03  0.84055212979E+03  0.25500000000E-02 0.  1.
         -2    1    1    2  502    0 -0.13030847444E+02 -0.16171590537E+02  0.64013286902E+03  0.64046968182E+03  0.25500000000E-02 0.  1.
<mgrwt>
<rscale>  0 0.41921282E+02</rscale>
<asrwt>0</asrwt>
<pdfrwt beam="1">  1        2 0.22780778E+00 0.41921282E+02</pdfrwt>
<pdfrwt beam="2">  1       -2 0.45647170E-04 0.41921282E+02</pdfrwt>
<totfact> 0.16966825E+06</totfact>
</mgrwt>
</event>
<event>
 4    1  0.4696545E-002  0.5380146E+02  0.7818608E-02  0.1425853E+00
         -2   -1    0    0  501    0 -0.00000000000E+00  0.00000000000E+00  0.62420365077E+03  0.62420365077E+03  0.25500000000E-02 0.  1.
          2   -1    0    0    0  501  0.00000000000E+00 -0.00000000000E+00 -0.11593147909E+01  0.11593175953E+01  0.25500000000E-02 0.  1.
          2    1    1    2    0  502 -0.18322422827E+02 -0.19694359755E+02  0.31460651171E+03  0.31575439221E+03  0.25500000000E-02 0.  1.
         -2    1    1    2  502    0  0.18322422827E+02  0.19694359755E+02  0.30843782427E+03  0.30960857616E+03  0.25500000000E-02 0.  1.
<mgrwt>
<rscale>  0 0.53801465E+02</rscale>
<asrwt>0</asrwt>
<pdfrwt beam="2">  1        2 0.17835623E-03 0.53801465E+02</pdfrwt>
<pdfrwt beam="1">  1       -2 0.96031387E-01 0.53801465E+02</pdfrwt>
<totfact> 0.11513920E+05</totfact>
</mgrwt>
</event>
<event>
 4    1  0.4696545E-002  0.1143811E+03  0.7818608E-02  0.1252665E+00
         -2   -1    0    0  501    0 -0.00000000000E+00  0.00000000000E+00  0.22382000288E+01  0.22382014814E+01  0.25500000000E-02 0.  1.
          2   -1    0    0    0  501  0.00000000000E+00 -0.00000000000E+00 -0.14613347743E+04  0.14613347743E+04  0.25500000000E-02 0.  1.
          2    1    1    2    0  502  0.66410218424E+01  0.44005168957E+02 -0.11891577391E+04  0.11899902043E+04  0.25500000000E-02 0.  1.
         -2    1    1    2  502    0 -0.66410218424E+01 -0.44005168957E+02 -0.26993883522E+03  0.27358277145E+03  0.25500000000E-02 0.  1.
<mgrwt>
<rscale>  0 0.11438113E+03</rscale>
<asrwt>0</asrwt>
<pdfrwt beam="2">  1        2 0.22481997E+00 0.11438113E+03</pdfrwt>
<pdfrwt beam="1">  1       -2 0.34433975E-03 0.11438113E+03</pdfrwt>
<totfact> 0.13021520E+05</totfact>
</mgrwt>
</event>
<event>
 4    1  0.4696545E-002  0.4882610E+02  0.7818608E-02  0.1451778E+00
         -2   -1    0    0  501    0 -0.00000000000E+00  0.00000000000E+00  0.38049768044E+00  0.38050622507E+00  0.25500000000E-02 0.  1.
          2   -1    0    0    0  501  0.00000000000E+00 -0.00000000000E+00 -0.15663439099E+04  0.15663439099E+04  0.25500000000E-02 0.  1.
          2    1    1    2    0  502 -0.14555917345E+02 -0.18565363380E+02 -0.58144174394E+03  0.58192013976E+03  0.25500000000E-02 0.  1.
         -2    1    1    2  502    0  0.14555917345E+02  0.18565363380E+02 -0.98452166831E+03  0.98480427641E+03  0.25500000000E-02 0.  1.
<mgrwt>
<rscale>  0 0.48826096E+02</rscale>
<asrwt>0</asrwt>
<pdfrwt beam="2">  1        2 0.24097082E+00 0.48826096E+02</pdfrwt>
<pdfrwt beam="1">  1       -2 0.58540016E-04 0.48826096E+02</pdfrwt>
<totfact> 0.11428096E+06</totfact>
</mgrwt>
</event>
<event>
 4    1  0.4696545E-002  0.5021280E+02  0.7818608E-02  0.1444197E+00
          2   -1    0    0    0  501  0.00000000000E+00  0.00000000000E+00  0.36007928508E+01  0.36007937538E+01  0.25500000000E-02 0.  1.
         -2   -1    0    0  501    0 -0.00000000000E+00 -0.00000000000E+00 -0.17505343421E+03  0.17505343423E+03  0.25500000000E-02 0.  1.
          2    1    1    2    0  502  0.14046003860E+01 -0.24758928482E+02 -0.99667729546E+02  0.10270654196E+03  0.25500000000E-02 0.  1.
         -2    1    1    2  502    0 -0.14046003860E+01  0.24758928482E+02 -0.71784911816E+02  0.75947686026E+02  0.25500000000E-02 0.  1.
<mgrwt>
<rscale>  0 0.50212797E+02</rscale>
<asrwt>0</asrwt>
<pdfrwt beam="1">  1        2 0.55396834E-03 0.50212797E+02</pdfrwt>
<pdfrwt beam="2">  1       -2 0.26931291E-01 0.50212797E+02</pdfrwt>
<totfact> 0.29399992E+05</totfact>
</mgrwt>
</event>
<event>
 4    1  0.4696545E-002  0.4594314E+02  0.7818608E-02  0.1468538E+00
          2   -1    0    0    0  501  0.00000000000E+00  0.00000000000E+00  0.12428780580E+02  0.12428780841E+02  0.25500000000E-02 0. -1.
         -2   -1    0    0  501    0 -0.00000000000E+00 -0.00000000000E+00 -0.42457340237E+02  0.42457340314E+02  0.25500000000E-02 0. -1.
          2    1    1    2    0  502 -0.67004286336E+01  0.21441687270E+02 -0.92785414615E+01  0.24305000206E+02  0.25500000000E-02 0. -1.
         -2    1    1    2  502    0  0.67004286336E+01 -0.21441687270E+02 -0.20750018196E+02  0.30581120949E+02  0.25500000000E-02 0. -1.
<mgrwt>
<rscale>  0 0.45943138E+02</rscale>
<asrwt>0</asrwt>
<pdfrwt beam="1">  1        2 0.19121201E-02 0.45943138E+02</pdfrwt>
<pdfrwt beam="2">  1       -2 0.65318984E-02 0.45943138E+02</pdfrwt>
<totfact> 0.51278680E+05</totfact>
</mgrwt>
</event>
<event>
 4    1  0.4696545E-002  0.4569993E+02  0.7818608E-02  0.1470019E+00
         -2   -1    0    0  501    0 -0.00000000000E+00  0.00000000000E+00  0.12599604155E+02  0.12599604413E+02  0.25500000000E-02 0.  1.
          2   -1    0    0    0  501  0.00000000000E+00 -0.00000000000E+00 -0.41439476774E+02  0.41439476853E+02  0.25500000000E-02 0.  1.
          2    1    1    2    0  502  0.17654814714E+02 -0.11657792973E+02 -0.42119147005E+01  0.21571667797E+02  0.25500000000E-02 0. -1.
         -2    1    1    2  502    0 -0.17654814714E+02  0.11657792973E+02 -0.24627957919E+02  0.32467413469E+02  0.25500000000E-02 0. -1.
<mgrwt>
<rscale>  0 0.45699935E+02</rscale>
<asrwt>0</asrwt>
<pdfrwt beam="2">  1        2 0.63753041E-02 0.45699935E+02</pdfrwt>
<pdfrwt beam="1">  1       -2 0.19384007E-02 0.45699935E+02</pdfrwt>
<totfact> 0.62446884E+05</totfact>
</mgrwt>
</event>
<event>
 4    1  0.4696545E-002  0.4891175E+02  0.7818608E-02  0.1451301E+00
         -2   -1    0    0  501    0 -0.00000000000E+00  0.00000000000E+00  0.63968143454E+00  0.63968651713E+00  0.25500000000E-02 0. -1.
          2   -1    0    0    0  501  0.00000000000E+00 -0.00000000000E+00 -0.93497716040E+03  0.93497716041E+03  0.25500000000E-02 0. -1.
          2    1    1    2    0  502 -0.24087795995E+02  0.38485054181E+01 -0.50061380928E+03  0.50120776028E+03  0.25500000000E-02 0. -1.
         -2    1    1    2  502    0  0.24087795995E+02 -0.38485054181E+01 -0.43372366969E+03  0.43440908665E+03  0.25500000000E-02 0. -1.
<mgrwt>
<rscale>  0 0.48911754E+02</rscale>
<asrwt>0</asrwt>
<pdfrwt beam="2">  1        2 0.14384155E+00 0.48911754E+02</pdfrwt>
<pdfrwt beam="1">  1       -2 0.98413668E-04 0.48911754E+02</pdfrwt>
<totfact> 0.12169760E+06</totfact>
</mgrwt>
</event>
<event>
 4    1  0.4696545E-002  0.1936053E+03  0.7818608E-02  0.1155249E+00
          2   -1    0    0    0  501  0.00000000000E+00  0.00000000000E+00  0.16374717333E+04  0.16374717333E+04  0.25500000000E-02 0. -1.
         -2   -1    0    0  501    0 -0.00000000000E+00 -0.00000000000E+00 -0.57226945397E+01  0.57226951079E+01  0.25500000000E-02 0. -1.
          2    1    1    2    0  502  0.28937524971E+02  0.67093679448E+02  0.13547913225E+04  0.13567602845E+04  0.25500000000E-02 0. -1.
         -2    1    1    2  502    0 -0.28937524971E+02 -0.67093679448E+02  0.27695771629E+03  0.28643414390E+03  0.25500000000E-02 0. -1.
<mgrwt>
<rscale>  0 0.19360528E+03</rscale>
<asrwt>0</asrwt>
<pdfrwt beam="1">  1        2 0.25191880E+00 0.19360528E+03</pdfrwt>
<pdfrwt beam="2">  1       -2 0.88041432E-03 0.19360528E+03</pdfrwt>
<totfact> 0.29042382E+04</totfact>
</mgrwt>
</event>
<event>
 4    1  0.4696545E-002  0.4090416E+02  0.7818608E-02  0.1501661E+00
          2   -1    0    0    0  501  0.00000000000E+00  0.00000000000E+00  0.79586848315E+02  0.79586848355E+02  0.25500000000E-02 0. -1.
         -2   -1    0    0  501    0 -0.00000000000E+00 -0.00000000000E+00 -0.52557362064E+01  0.52557368250E+01  0.25500000000E-02 0. -1.
          2    1    1    2    0  502  0.20418806041E+02  0.11619123590E+01  0.36960000304E+02  0.42241203930E+02  0.25500000000E-02 0.  1.
         -2    1    1    2  502    0 -0.20418806041E+02 -0.11619123590E+01  0.37371111804E+02  0.42601381251E+02  0.25500000000E-02 0.  1.
<mgrwt>
<rscale>  0 0.40904157E+02</rscale>
<asrwt>0</asrwt>
<pdfrwt beam="1">  1        2 0.12244130E-01 0.40904157E+02</pdfrwt>
<pdfrwt beam="2">  1       -2 0.80857486E-03 0.40904157E+02</pdfrwt>
<totfact> 0.93657943E+05</totfact>
</mgrwt>
</event>
<event>
 4    1  0.4696545E-002  0.6647608E+02  0.7818608E-02  0.1372504E+00
          2   -1    0    0    0  501  0.00000000000E+00  0.00000000000E+00  0.89980402246E+03  0.89980402247E+03  0.25500000000E-02 0.  1.
         -2   -1    0    0  501    0 -0.00000000000E+00 -0.00000000000E+00 -0.12277850900E+01  0.12277877381E+01  0.25500000000E-02 0.  1.
          2    1    1    2    0  502 -0.18582956300E+02  0.13558052826E+02  0.77448226682E+03  0.77482380493E+03  0.25500000000E-02 0. -1.
         -2    1    1    2  502    0  0.18582956300E+02 -0.13558052826E+02  0.12409397055E+03  0.12620800527E+03  0.25500000000E-02 0. -1.
<mgrwt>
<rscale>  0 0.66476076E+02</rscale>
<asrwt>0</asrwt>
<pdfrwt beam="1">  1        2 0.13843144E+00 0.66476076E+02</pdfrwt>
<pdfrwt beam="2">  1       -2 0.18889014E-03 0.66476076E+02</pdfrwt>
<totfact> 0.56224366E+05</totfact>
</mgrwt>
</event>
<event>
 4    1  0.4696545E-002  0.4909344E+02  0.7818608E-02  0.1450294E+00
         -2   -1    0    0  501    0 -0.00000000000E+00  0.00000000000E+00  0.72396723639E+02  0.72396723684E+02  0.25500000000E-02 0.  1.
          2   -1    0    0    0  501  0.00000000000E+00 -0.00000000000E+00 -0.83227706006E+01  0.83227709912E+01  0.25500000000E-02 0.  1.
          2    1    1    2    0  502 -0.69607306942E+01  0.19845506170E+02  0.52850608142E+02  0.56881303382E+02  0.25500000000E-02 0.  1.
         -2    1    1    2  502    0  0.69607306942E+01 -0.19845506170E+02  0.11223344897E+02  0.23838191293E+02  0.25500000000E-02 0.  1.
<mgrwt>
<rscale>  0 0.49093435E+02</rscale>
<asrwt>0</asrwt>
<pdfrwt beam="2">  1        2 0.12804263E-02 0.49093435E+02</pdfrwt>
<pdfrwt beam="1">  1       -2 0.11137958E-01 0.49093435E+02</pdfrwt>
<totfact> 0.39726812E+05</totfact>
</mgrwt>
</event>
<event>
 4    1  0.4696545E-002  0.6856371E+02  0.7818608E-02  0.1365046E+00
          2   -1    0    0    0  501  0.00000000000E+00  0.00000000000E+00  0.27251175621E+04  0.27251175621E+04  0.25500000000E-02 0.  1.
         -2   -1    0    0  501    0 -0.00000000000E+00 -0.00000000000E+00 -0.43126042962E+00  0.43126796850E+00  0.25500000000E-02 0.  1.
          2    1    1    2    0  502  0.36212202517E+01  0.32990092143E+02  0.10208772914E+04  0.10214166160E+04  0.25500000000E-02 0.  1.
         -2    1    1    2  502    0 -0.36212202517E+01 -0.32990092143E+02  0.17038090103E+04  0.17041322141E+04  0.25500000000E-02 0.  1.
<mgrwt>
<rscale>  0 0.68563712E+02</rscale>
<asrwt>0</asrwt>
<pdfrwt beam="1">  1        2 0.41924682E+00 0.68563712E+02</pdfrwt>
<pdfrwt beam="2">  1       -2 0.66348661E-04 0.68563712E+02</pdfrwt>
<totfact> 0.26839757E+05</totfact>
</mgrwt>
</event>
<event>
 4    1  0.4696545E-002  0.4183659E+02  0.7818608E-02  0.1495115E+00
          2   -1    0    0    0  501  0.00000000000E+00  0.00000000000E+00  0.77133571299E+02  0.77133571341E+02  0.25500000000E-02 0. -1.
         -2   -1    0    0  501    0 -0.00000000000E+00 -0.00000000000E+00 -0.56729515708E+01  0.56729521439E+01  0.25500000000E-02 0. -1.
          2    1    1    2    0  502 -0.11589282894E+02  0.17364668514E+02  0.33125581010E+02  0.39155425095E+02  0.25500000000E-02 0. -1.
         -2    1    1    2  502    0  0.11589282894E+02 -0.17364668514E+02  0.38335038718E+02  0.43651098390E+02  0.25500000000E-02 0. -1.
<mgrwt>
<rscale>  0 0.41836589E+02</rscale>
<asrwt>0</asrwt>
<pdfrwt beam="1">  1        2 0.11866702E-01 0.41836589E+02</pdfrwt>
<pdfrwt beam="2">  1       -2 0.87276189E-03 0.41836589E+02</pdfrwt>
<totfact> 0.87953667E+05</totfact>
</mgrwt>
</event>
<event>
 4    1  0.4696545E-002  0.7483203E+02  0.7818608E-02  0.1344392E+00
         -2   -1    0    0  501    0 -0.00000000000E+00  0.00000000000E+00  0.27841705612E+02  0.27841705729E+02  0.25500000000E-02 0.  1.
          2   -1    0    0    0  501  0.00000000000E+00 -0.00000000000E+00 -0.50282767619E+02  0.50282767684E+02  0.25500000000E-02 0.  1.
          2    1    1    2    0  502 -0.14073028048E+02  0.32942585791E+02  0.57252335388E-01  0.35822721300E+02  0.25500000000E-02 0. -1.
         -2    1    1    2  502    0  0.14073028048E+02 -0.32942585791E+02 -0.22498314342E+02  0.42301752112E+02  0.25500000000E-02 0. -1.
<mgrwt>
<rscale>  0 0.74832026E+02</rscale>
<asrwt>0</asrwt>
<pdfrwt beam="2">  1        2 0.77358104E-02 0.74832026E+02</pdfrwt>
<pdfrwt beam="1">  1       -2 0.42833393E-02 0.74832026E+02</pdfrwt>
<totfact> 0.17592016E+05</totfact>
</mgrwt>
</event>
<event>
 4    1  0.4696545E-002  0.5078784E+02  0.7818608E-02  0.1441138E+00
          2   -1    0    0    0  501  0.00000000000E+00  0.00000000000E+00  0.18848552162E+03  0.18848552164E+03  0.25500000000E-02 0.  1.
         -2   -1    0    0  501    0 -0.00000000000E+00 -0.00000000000E+00 -0.34212230471E+01  0.34212239974E+01  0.25500000000E-02 0.  1.
          2    1    1    2    0  502 -0.20026091005E+02  0.12606009176E+02  0.57716670885E+02  0.62379242484E+02  0.25500000000E-02 0. -1.
         -2    1    1    2  502    0  0.20026091005E+02 -0.12606009176E+02  0.12734762769E+03  0.12952750315E+03  0.25500000000E-02 0. -1.
<mgrwt>
<rscale>  0 0.50787837E+02</rscale>
<asrwt>0</asrwt>
<pdfrwt beam="1">  1        2 0.28997776E-01 0.50787837E+02</pdfrwt>
<pdfrwt beam="2">  1       -2 0.52634202E-03 0.50787837E+02</pdfrwt>
<totfact> 0.69417194E+05</totfact>
</mgrwt>
</event>
<event>
 4    1  0.4696545E-002  0.9046426E+02  0.7818608E-02  0.1301731E+00
          2   -1    0    0    0  501  0.00000000000E+00  0.00000000000E+00  0.31976496386E+02  0.31976496487E+02  0.25500000000E-02 0.  1.
         -2   -1    0    0  501    0 -0.00000000000E+00 -0.00000000000E+00 -0.63982796322E+02  0.63982796373E+02  0.25500000000E-02 0.  1.
          2    1    1    2    0  502 -0.40360007993E+02 -0.13580887827E+02 -0.32179905191E+02  0.53375247671E+02  0.25500000000E-02 0. -1.
         -2    1    1    2  502    0  0.40360007993E+02  0.13580887827E+02  0.17360525376E+00  0.42584045189E+02  0.25500000000E-02 0. -1.
<mgrwt>
<rscale>  0 0.90464262E+02</rscale>
<asrwt>0</asrwt>
<pdfrwt beam="1">  1        2 0.49194610E-02 0.90464262E+02</pdfrwt>
<pdfrwt beam="2">  1       -2 0.98435071E-02 0.90464262E+02</pdfrwt>
<totfact> 0.92081787E+04</totfact>
</mgrwt>
</event>
<event>
 4    1  0.4696545E-002  0.4891074E+02  0.7818608E-02  0.1451307E+00
         -2   -1    0    0  501    0 -0.00000000000E+00  0.00000000000E+00  0.20902989156E+01  0.20903004710E+01  0.25500000000E-02 0. -1.
          2   -1    0    0    0  501  0.00000000000E+00 -0.00000000000E+00 -0.28611458552E+03  0.28611458553E+03  0.25500000000E-02 0. -1.
          2    1    1    2    0  502 -0.21986876000E+02 -0.10278256429E+02 -0.12433478969E+03  0.12668151091E+03  0.25500000000E-02 0. -1.
         -2    1    1    2  502    0  0.21986876000E+02  0.10278256429E+02 -0.15968949691E+03  0.16152337509E+03  0.25500000000E-02 0. -1.
<mgrwt>
<rscale>  0 0.48910745E+02</rscale>
<asrwt>0</asrwt>
<pdfrwt beam="2">  1        2 0.44017598E-01 0.48910745E+02</pdfrwt>
<pdfrwt beam="1">  1       -2 0.32158479E-03 0.48910745E+02</pdfrwt>
<totfact> 0.87892607E+05</totfact>
</mgrwt>
</event>
<event>
 4    1  0.4696545E-002  0.1247572E+03  0.7818608E-02  0.1235449E+00
         -2   -1    0    0  501    0 -0.00000000000E+00  0.00000000000E+00  0.47424258471E+01  0.47424265326E+01  0.25500000000E-02 0. -1.
          2   -1    0    0    0  501  0.00000000000E+00 -0.00000000000E+00 -0.82048440240E+03  0.82048440240E+03  0.25500000000E-02 0. -1.
          2    1    1    2    0  502 -0.57946329698E+02  0.36495494957E+01 -0.25703480246E+03  0.26351088406E+03  0.25500000000E-02 0. -1.
         -2    1    1    2  502    0  0.57946329698E+02 -0.36495494957E+01 -0.55870717409E+03  0.56171594487E+03  0.25500000000E-02 0. -1.
<mgrwt>
<rscale>  0 0.12475715E+03</rscale>
<asrwt>0</asrwt>
<pdfrwt beam="2">  1        2 0.12622826E+00 0.12475715E+03</pdfrwt>
<pdfrwt beam="1">  1       -2 0.72960468E-03 0.12475715E+03</pdfrwt>
<totfact> 0.10576051E+05</totfact>
</mgrwt>
</event>
<event>
 4    1  0.4696545E-002  0.4778950E+02  0.7818608E-02  0.1457643E+00
          2   -1    0    0    0  501  0.00000000000E+00  0.00000000000E+00  0.45335614086E+03  0.45335614087E+03  0.25500000000E-02 0. -1.
         -2   -1    0    0  501    0 -0.00000000000E+00 -0.00000000000E+00 -0.12594036986E+01  0.12594062801E+01  0.25500000000E-02 0. -1.
          2    1    1    2    0  502  0.21552854617E+02  0.10285745044E+02  0.23364015157E+03  0.23485749408E+03  0.25500000000E-02 0. -1.
         -2    1    1    2  502    0 -0.21552854617E+02 -0.10285745044E+02  0.21845658559E+03  0.21975805307E+03  0.25500000000E-02 0. -1.
<mgrwt>
<rscale>  0 0.47789496E+02</rscale>
<asrwt>0</asrwt>
<pdfrwt beam="1">  1        2 0.69747098E-01 0.47789496E+02</pdfrwt>
<pdfrwt beam="2">  1       -2 0.19375462E-03 0.47789496E+02</pdfrwt>
<totfact> 0.10887961E+06</totfact>
</mgrwt>
</event>
<event>
 4    1  0.4696545E-002  0.7540037E+02  0.7818608E-02  0.1342636E+00
          2   -1    0    0    0  501  0.00000000000E+00  0.00000000000E+00  0.25197033890E+03  0.25197033891E+03  0.25500000000E-02 0.  1.
         -2   -1    0    0  501    0 -0.00000000000E+00 -0.00000000000E+00 -0.56407587953E+01  0.56407593717E+01  0.25500000000E-02 0.  1.
          2    1    1    2    0  502 -0.36233403104E+02 -0.15446074172E+01  0.87979255008E+02  0.95160888136E+02  0.25500000000E-02 0.  1.
         -2    1    1    2  502    0  0.36233403104E+02  0.15446074172E+01  0.15835032509E+03  0.16245021015E+03  0.25500000000E-02 0.  1.
<mgrwt>
<rscale>  0 0.75400371E+02</rscale>
<asrwt>0</asrwt>
<pdfrwt beam="1">  1        2 0.38764666E-01 0.75400371E+02</pdfrwt>
<pdfrwt beam="2">  1       -2 0.86780913E-03 0.75400371E+02</pdfrwt>
<totfact> 0.27843531E+05</totfact>
</mgrwt>
</event>
<event>
 4    1  0.4696545E-002  0.6259950E+02  0.7818608E-02  0.1387236E+00
         -2   -1    0    0  501    0 -0.00000000000E+00  0.00000000000E+00  0.41649870930E+00  0.41650651537E+00  0.25500000000E-02 0.  1.
          2   -1    0    0    0  501  0.00000000000E+00 -0.00000000000E+00 -0.23521445864E+04  0.23521445864E+04  0.25500000000E-02 0.  1.
          2    1    1    2    0  502 -0.16006768300E+02 -0.20871609975E+02 -0.18134530313E+04  0.18136437736E+04  0.25500000000E-02 0.  1.
         -2    1    1    2  502    0  0.16006768300E+02  0.20871609975E+02 -0.53827505642E+03  0.53891731936E+03  0.25500000000E-02 0.  1.
<mgrwt>
<rscale>  0 0.62599501E+02</rscale>
<asrwt>0</asrwt>
<pdfrwt beam="2">  1        2 0.36185776E+00 0.62599501E+02</pdfrwt>
<pdfrwt beam="1">  1       -2 0.64079208E-04 0.62599501E+02</pdfrwt>
<totfact> 0.43427281E+05</totfact>
</mgrwt>
</event>
<event>
 4    1  0.4696545E-002  0.4726633E+02  0.7818608E-02  0.1460670E+00
          2   -1    0    0    0  501  0.00000000000E+00  0.00000000000E+00  0.19719019101E+04  0.19719019101E+04  0.25500000000E-02 0.  1.
         -2   -1    0    0  501    0 -0.00000000000E+00 -0.00000000000E+00 -0.28323676867E+00  0.28324824735E+00  0.25500000000E-02 0.  1.
          2    1    1    2    0  502 -0.21412762917E+02  0.87724417944E+01  0.78542404030E+03  0.78576484092E+03  0.25500000000E-02 0. -1.
         -2    1    1    2  502    0  0.21412762917E+02 -0.87724417944E+01  0.11861946331E+04  0.11864203175E+04  0.25500000000E-02 0. -1.
<mgrwt>
<rscale>  0 0.47266328E+02</rscale>
<asrwt>0</asrwt>
<pdfrwt beam="1">  1        2 0.30336614E+00 0.47266328E+02</pdfrwt>
<pdfrwt beam="2">  1       -2 0.43576257E-04 0.47266328E+02</pdfrwt>
<totfact> 0.10720706E+06</totfact>
</mgrwt>
</event>
<event>
 4    1  0.4696545E-002  0.4948713E+02  0.7818608E-02  0.1448128E+00
         -2   -1    0    0  501    0 -0.00000000000E+00  0.00000000000E+00  0.61970309177E+00  0.61970833822E+00  0.25500000000E-02 0. -1.
          2   -1    0    0    0  501  0.00000000000E+00 -0.00000000000E+00 -0.98795913133E+03  0.98795913133E+03  0.25500000000E-02 0. -1.
          2    1    1    2    0  502  0.86348326434E+00 -0.23036807516E+02 -0.67324021733E+03  0.67363479003E+03  0.25500000000E-02 0. -1.
         -2    1    1    2  502    0 -0.86348326434E+00  0.23036807516E+02 -0.31409921091E+03  0.31494404964E+03  0.25500000000E-02 0. -1.
<mgrwt>
<rscale>  0 0.49487127E+02</rscale>
<asrwt>0</asrwt>
<pdfrwt beam="2">  1        2 0.15199245E+00 0.49487127E+02</pdfrwt>
<pdfrwt beam="1">  1       -2 0.95340131E-04 0.49487127E+02</pdfrwt>
<totfact> 0.11869324E+06</totfact>
</mgrwt>
</event>
<event>
 4    1  0.4696545E-002  0.7737676E+02  0.7818608E-02  0.1336665E+00
         -2   -1    0    0  501    0 -0.00000000000E+00  0.00000000000E+00  0.25565449080E+01  0.25565461797E+01  0.25500000000E-02 0.  1.
          2   -1    0    0    0  501  0.00000000000E+00 -0.00000000000E+00 -0.58547389388E+03  0.58547389388E+03  0.25500000000E-02 0.  1.
          2    1    1    2    0  502  0.24807078490E+02  0.29435609952E+02 -0.26208025390E+03  0.26489225313E+03  0.25500000000E-02 0. -1.
         -2    1    1    2  502    0 -0.24807078490E+02 -0.29435609952E+02 -0.32083709507E+03  0.32313818694E+03  0.25500000000E-02 0. -1.
<mgrwt>
<rscale>  0 0.77376758E+02</rscale>
<asrwt>0</asrwt>
<pdfrwt beam="2">  1        2 0.90072800E-01 0.77376758E+02</pdfrwt>
<pdfrwt beam="1">  1       -2 0.39331516E-03 0.77376758E+02</pdfrwt>
<totfact> 0.34776823E+05</totfact>
</mgrwt>
</event>
<event>
 4    1  0.4696545E-002  0.4260270E+02  0.7818608E-02  0.1489888E+00
          2   -1    0    0    0  501  0.00000000000E+00  0.00000000000E+00  0.22330034165E+02  0.22330034311E+02  0.25500000000E-02 0. -1.
         -2   -1    0    0  501    0 -0.00000000000E+00 -0.00000000000E+00 -0.20320058917E+02  0.20320059077E+02  0.25500000000E-02 0. -1.
          2    1    1    2    0  502 -0.19953167529E+02  0.73210824605E+01  0.24280000670E+01  0.21392109145E+02  0.25500000000E-02 0. -1.
         -2    1    1    2  502    0  0.19953167529E+02 -0.73210824605E+01 -0.41802481901E+00  0.21257984243E+02  0.25500000000E-02 0. -1.
<mgrwt>
<rscale>  0 0.42602705E+02</rscale>
<asrwt>0</asrwt>
<pdfrwt beam="1">  1        2 0.34353899E-02 0.42602705E+02</pdfrwt>
<pdfrwt beam="2">  1       -2 0.31261630E-02 0.42602705E+02</pdfrwt>
<totfact> 0.68072259E+05</totfact>
</mgrwt>
</event>
<event>
 4    1  0.4696545E-002  0.7689174E+02  0.7818608E-02  0.1338111E+00
          2   -1    0    0    0  501  0.00000000000E+00  0.00000000000E+00  0.87494984004E+02  0.87494984041E+02  0.25500000000E-02 0.  1.
         -2   -1    0    0  501    0 -0.00000000000E+00 -0.00000000000E+00 -0.16893367199E+02  0.16893367391E+02  0.25500000000E-02 0.  1.
          2    1    1    2    0  502  0.22961865983E+02  0.14096859980E+02 -0.19310581135E+01  0.27012918070E+02  0.25500000000E-02 0.  1.
         -2    1    1    2  502    0 -0.22961865983E+02 -0.14096859980E+02  0.72532674918E+02  0.77375433363E+02  0.25500000000E-02 0.  1.
<mgrwt>
<rscale>  0 0.76891740E+02</rscale>
<asrwt>0</asrwt>
<pdfrwt beam="1">  1        2 0.13460767E-01 0.76891740E+02</pdfrwt>
<pdfrwt beam="2">  1       -2 0.25989796E-02 0.76891740E+02</pdfrwt>
<totfact> 0.18775080E+05</totfact>
</mgrwt>
</event>
<event>
 4    1  0.4696545E-002  0.5196228E+02  0.7818608E-02  0.1435036E+00
          2   -1    0    0    0  501  0.00000000000E+00  0.00000000000E+00  0.11686810311E+02  0.11686810589E+02  0.25500000000E-02 0.  1.
         -2   -1    0    0  501    0 -0.00000000000E+00 -0.00000000000E+00 -0.57759106476E+02  0.57759106533E+02  0.25500000000E-02 0.  1.
          2    1    1    2    0  502 -0.17160123323E+02  0.19464189631E+02 -0.24776235164E+02  0.35877379306E+02  0.25500000000E-02 0.  1.
         -2    1    1    2  502    0  0.17160123323E+02 -0.19464189631E+02 -0.21296061001E+02  0.33568537816E+02  0.25500000000E-02 0.  1.
<mgrwt>
<rscale>  0 0.51962284E+02</rscale>
<asrwt>0</asrwt>
<pdfrwt beam="1">  1        2 0.17979709E-02 0.51962284E+02</pdfrwt>
<pdfrwt beam="2">  1       -2 0.88860163E-02 0.51962284E+02</pdfrwt>
<totfact> 0.36205761E+05</totfact>
</mgrwt>
</event>
<event>
 4    1  0.4696545E-002  0.6208537E+02  0.7818608E-02  0.1389283E+00
         -2   -1    0    0  501    0 -0.00000000000E+00  0.00000000000E+00  0.10152089550E+01  0.10152121576E+01  0.25500000000E-02 0.  1.
          2   -1    0    0    0  501  0.00000000000E+00 -0.00000000000E+00 -0.94921029555E+03  0.94921029556E+03  0.25500000000E-02 0.  1.
          2    1    1    2    0  502  0.29611005503E+02  0.63974570863E+01 -0.57779958122E+03  0.57859320353E+03  0.25500000000E-02 0.  1.
         -2    1    1    2  502    0 -0.29611005503E+02 -0.63974570863E+01 -0.37039550538E+03  0.37163230419E+03  0.25500000000E-02 0.  1.
<mgrwt>
<rscale>  0 0.62085371E+02</rscale>
<asrwt>0</asrwt>
<pdfrwt beam="2">  1        2 0.14603164E+00 0.62085371E+02</pdfrwt>
<pdfrwt beam="1">  1       -2 0.15618700E-03 0.62085371E+02</pdfrwt>
<totfact> 0.67207586E+05</totfact>
</mgrwt>
</event>
<event>
 4    1  0.4696545E-002  0.7097293E+02  0.7818608E-02  0.1356815E+00
         -2   -1    0    0  501    0 -0.00000000000E+00  0.00000000000E+00  0.43350130331E+01  0.43350137831E+01  0.25500000000E-02 0. -1.
          2   -1    0    0    0  501  0.00000000000E+00 -0.00000000000E+00 -0.29049260640E+03  0.29049260641E+03  0.25500000000E-02 0. -1.
          2    1    1    2    0  502 -0.22154538773E+02 -0.26673387454E+02 -0.11171719880E+03  0.11697446602E+03  0.25500000000E-02 0.  1.
         -2    1    1    2  502    0  0.22154538773E+02  0.26673387454E+02 -0.17444039457E+03  0.17785315417E+03  0.25500000000E-02 0.  1.
<mgrwt>
<rscale>  0 0.70972934E+02</rscale>
<asrwt>0</asrwt>
<pdfrwt beam="2">  1        2 0.44691155E-01 0.70972934E+02</pdfrwt>
<pdfrwt beam="1">  1       -2 0.66692537E-03 0.70972934E+02</pdfrwt>
<totfact> 0.34322291E+05</totfact>
</mgrwt>
</event>
<event>
 4    1  0.4696545E-002  0.4153750E+02  0.7818608E-02  0.1497193E+00
          2   -1    0    0    0  501  0.00000000000E+00  0.00000000000E+00  0.99556395176E+02  0.99556395209E+02  0.25500000000E-02 0.  1.
         -2   -1    0    0  501    0 -0.00000000000E+00 -0.00000000000E+00 -0.43326301374E+01  0.43326308878E+01  0.25500000000E-02 0.  1.
          2    1    1    2    0  502 -0.12778586414E+02  0.15716482244E+02  0.36139269957E+02  0.41428817560E+02  0.25500000000E-02 0. -1.
         -2    1    1    2  502    0  0.12778586414E+02 -0.15716482244E+02  0.59084495082E+02  0.62460208537E+02  0.25500000000E-02 0. -1.
<mgrwt>
<rscale>  0 0.41537505E+02</rscale>
<asrwt>0</asrwt>
<pdfrwt beam="1">  1        2 0.15316368E-01 0.41537505E+02</pdfrwt>
<pdfrwt beam="2">  1       -2 0.66655857E-03 0.41537505E+02</pdfrwt>
<totfact> 0.95106570E+05</totfact>
</mgrwt>
</event>
<event>
 4    1  0.4696545E-002  0.5327567E+02  0.7818608E-02  0.1428434E+00
          2   -1    0    0    0  501  0.00000000000E+00  0.00000000000E+00  0.53613613566E+02  0.53613613626E+02  0.25500000000E-02 0.  1.
         -2   -1    0    0  501    0 -0.00000000000E+00 -0.00000000000E+00 -0.13234963402E+02  0.13234963648E+02  0.25500000000E-02 0.  1.
          2    1    1    2    0  502  0.17628950699E+02  0.14464084265E+02  0.29124670740E+01  0.22988521208E+02  0.25500000000E-02 0.  1.
         -2    1    1    2  502    0 -0.17628950699E+02 -0.14464084265E+02  0.37466183089E+02  0.43860056066E+02  0.25500000000E-02 0.  1.
<mgrwt>
<rscale>  0 0.53275669E+02</rscale>
<asrwt>0</asrwt>
<pdfrwt beam="1">  1        2 0.82482485E-02 0.53275669E+02</pdfrwt>
<pdfrwt beam="2">  1       -2 0.20361482E-02 0.53275669E+02</pdfrwt>
<totfact> 0.44140042E+05</totfact>
</mgrwt>
</event>
<event>
 4    1  0.4696545E-002  0.2016281E+03  0.7818608E-02  0.1148373E+00
         -2   -1    0    0  501    0 -0.00000000000E+00  0.00000000000E+00  0.63335660113E+01  0.63335665246E+01  0.25500000000E-02 0. -1.
          2   -1    0    0    0  501  0.00000000000E+00 -0.00000000000E+00 -0.16046992032E+04  0.16046992032E+04  0.25500000000E-02 0. -1.
          2    1    1    2    0  502  0.94322274698E+02 -0.18827742462E+02 -0.10405180100E+04  0.10449540203E+04  0.25500000000E-02 0. -1.
         -2    1    1    2  502    0 -0.94322274698E+02  0.18827742462E+02 -0.55784762715E+03  0.56607874939E+03  0.25500000000E-02 0. -1.
<mgrwt>
<rscale>  0 0.20162806E+03</rscale>
<asrwt>0</asrwt>
<pdfrwt beam="2">  1        2 0.24687648E+00 0.20162806E+03</pdfrwt>
<pdfrwt beam="1">  1       -2 0.97439609E-03 0.20162806E+03</pdfrwt>
<totfact> 0.26161295E+04</totfact>
</mgrwt>
</event>
<event>
 4    1  0.4696545E-002  0.1175334E+03  0.7818608E-02  0.1247223E+00
         -2   -1    0    0  501    0 -0.00000000000E+00  0.00000000000E+00  0.62080075235E+02  0.62080075287E+02  0.25500000000E-02 0.  1.
          2   -1    0    0    0  501  0.00000000000E+00 -0.00000000000E+00 -0.55630155171E+02  0.55630155229E+02  0.25500000000E-02 0.  1.
          2    1    1    2    0  502 -0.20374829367E+02  0.52311177132E+02 -0.14177354949E+02  0.57901557185E+02  0.25500000000E-02 0.  1.
         -2    1    1    2  502    0  0.20374829367E+02 -0.52311177132E+02  0.20627275013E+02  0.59808673331E+02  0.25500000000E-02 0.  1.
<mgrwt>
<rscale>  0 0.11753339E+03</rscale>
<asrwt>0</asrwt>
<pdfrwt beam="2">  1        2 0.85584854E-02 0.11753339E+03</pdfrwt>
<pdfrwt beam="1">  1       -2 0.95507809E-02 0.11753339E+03</pdfrwt>
<totfact> 0.49671002E+04</totfact>
</mgrwt>
</event>
<event>
 4    1  0.4696545E-002  0.6679743E+02  0.7818608E-02  0.1371335E+00
         -2   -1    0    0  501    0 -0.00000000000E+00  0.00000000000E+00  0.12634270657E+03  0.12634270659E+03  0.25500000000E-02 0. -1.
          2   -1    0    0    0  501  0.00000000000E+00 -0.00000000000E+00 -0.88289544365E+01  0.88289548047E+01  0.25500000000E-02 0. -1.
          2    1    1    2    0  502  0.14219625021E+02 -0.28283115625E+02  0.37213155912E+02  0.48856436061E+02  0.25500000000E-02 0.  1.
         -2    1    1    2  502    0 -0.14219625021E+02  0.28283115625E+02  0.80300596221E+02  0.86315225338E+02  0.25500000000E-02 0.  1.
<mgrwt>
<rscale>  0 0.66797426E+02</rscale>
<asrwt>0</asrwt>
<pdfrwt beam="2">  1        2 0.13583007E-02 0.66797426E+02</pdfrwt>
<pdfrwt beam="1">  1       -2 0.19437339E-01 0.66797426E+02</pdfrwt>
<totfact> 0.16178429E+05</totfact>
</mgrwt>
</event>
<event>
 4    1  0.4696545E-002  0.5133563E+02  0.7818608E-02  0.1438268E+00
          2   -1    0    0    0  501  0.00000000000E+00  0.00000000000E+00  0.44322911912E+02  0.44322911985E+02  0.25500000000E-02 0.  1.
         -2   -1    0    0  501    0 -0.00000000000E+00 -0.00000000000E+00 -0.14864473060E+02  0.14864473279E+02  0.25500000000E-02 0.  1.
          2    1    1    2    0  502  0.15153892451E+02 -0.17867769319E+02  0.26403319849E+01  0.23576874186E+02  0.25500000000E-02 0.  1.
         -2    1    1    2  502    0 -0.15153892451E+02  0.17867769319E+02  0.26818106867E+02  0.35610511079E+02  0.25500000000E-02 0.  1.
<mgrwt>
<rscale>  0 0.51335630E+02</rscale>
<asrwt>0</asrwt>
<pdfrwt beam="1">  1        2 0.68189095E-02 0.51335630E+02</pdfrwt>
<pdfrwt beam="2">  1       -2 0.22868420E-02 0.51335630E+02</pdfrwt>
<totfact> 0.46859696E+05</totfact>
</mgrwt>
</event>
<event>
 4    1  0.4696545E-002  0.4429730E+02  0.7818608E-02  0.1478777E+00
         -2   -1    0    0  501    0 -0.00000000000E+00  0.00000000000E+00  0.12602734378E+01  0.12602760176E+01  0.25500000000E-02 0. -1.
          2   -1    0    0    0  501  0.00000000000E+00 -0.00000000000E+00 -0.38925052864E+03  0.38925052864E+03  0.25500000000E-02 0. -1.
          2    1    1    2    0  502 -0.21948216942E+02  0.11437485888E+01 -0.21818644212E+03  0.21929057417E+03  0.25500000000E-02 0. -1.
         -2    1    1    2  502    0  0.21948216942E+02 -0.11437485888E+01 -0.16980381308E+03  0.17122023050E+03  0.25500000000E-02 0. -1.
<mgrwt>
<rscale>  0 0.44297296E+02</rscale>
<asrwt>0</asrwt>
<pdfrwt beam="2">  1        2 0.59884601E-01 0.44297296E+02</pdfrwt>
<pdfrwt beam="1">  1       -2 0.19388873E-03 0.44297296E+02</pdfrwt>
<totfact> 0.12471702E+06</totfact>
</mgrwt>
</event>
<event>
 4    1  0.4696545E-002  0.4685378E+02  0.7818608E-02  0.1463090E+00
          2   -1    0    0    0  501  0.00000000000E+00  0.00000000000E+00  0.41576192548E+01  0.41576200368E+01  0.25500000000E-02 0.  1.
         -2   -1    0    0  501    0 -0.00000000000E+00 -0.00000000000E+00 -0.13200319654E+03  0.13200319657E+03  0.25500000000E-02 0.  1.
          2    1    1    2    0  502  0.18826199920E+02 -0.11565361052E+02 -0.41293455947E+02  0.46833032042E+02  0.25500000000E-02 0. -1.
         -2    1    1    2  502    0 -0.18826199920E+02  0.11565361052E+02 -0.86552121341E+02  0.89327784562E+02  0.25500000000E-02 0. -1.
<mgrwt>
<rscale>  0 0.46853776E+02</rscale>
<asrwt>0</asrwt>
<pdfrwt beam="1">  1        2 0.63963389E-03 0.46853776E+02</pdfrwt>
<pdfrwt beam="2">  1       -2 0.20308181E-01 0.46853776E+02</pdfrwt>
<totfact> 0.38299317E+05</totfact>
</mgrwt>
</event>
<event>
 4    1  0.4696545E-002  0.5381294E+02  0.7818608E-02  0.1425797E+00
         -2   -1    0    0  501    0 -0.00000000000E+00  0.00000000000E+00  0.76193935873E+00  0.76194362579E+00  0.25500000000E-02 0.  1.
          2   -1    0    0    0  501  0.00000000000E+00 -0.00000000000E+00 -0.95014926504E+03  0.95014926504E+03  0.25500000000E-02 0.  1.
          2    1    1    2    0  502 -0.30319772405E+01 -0.23507811314E+02 -0.69970744894E+03  0.70010879453E+03  0.25500000000E-02 0. -1.
         -2    1    1    2  502    0  0.30319772405E+01  0.23507811314E+02 -0.24967987675E+03  0.25080241414E+03  0.25500000000E-02 0. -1.
<mgrwt>
<rscale>  0 0.53812941E+02</rscale>
<asrwt>0</asrwt>
<pdfrwt beam="2">  1        2 0.14617586E+00 0.53812941E+02</pdfrwt>
<pdfrwt beam="1">  1       -2 0.11722253E-03 0.53812941E+02</pdfrwt>
<totfact> 0.96210557E+05</totfact>
</mgrwt>
</event>
<event>
 4    1  0.4696545E-002  0.5118925E+02  0.7818608E-02  0.1439031E+00
          2   -1    0    0    0  501  0.00000000000E+00  0.00000000000E+00  0.21398722331E+04  0.21398722331E+04  0.25500000000E-02 0.  1.
         -2   -1    0    0  501    0 -0.00000000000E+00 -0.00000000000E+00 -0.30612733416E+00  0.30613795456E+00  0.25500000000E-02 0.  1.
          2    1    1    2    0  502  0.20797034603E+02  0.12291659078E+02  0.14232698984E+04  0.14234749050E+04  0.25500000000E-02 0. -1.
         -2    1    1    2  502    0 -0.20797034603E+02 -0.12291659078E+02  0.71629620737E+03  0.71670346604E+03  0.25500000000E-02 0. -1.
<mgrwt>
<rscale>  0 0.51189247E+02</rscale>
<asrwt>0</asrwt>
<pdfrwt beam="1">  1        2 0.32921554E+00 0.51189247E+02</pdfrwt>
<pdfrwt beam="2">  1       -2 0.47096696E-04 0.51189247E+02</pdfrwt>
<totfact> 0.81192790E+05</totfact>
</mgrwt>
</event>
<event>
 4    1  0.4696545E-002  0.5288465E+02  0.7818608E-02  0.1430376E+00
         -2   -1    0    0  501    0 -0.00000000000E+00  0.00000000000E+00  0.16764086444E+01  0.16764105839E+01  0.25500000000E-02 0.  1.
          2   -1    0    0    0  501  0.00000000000E+00 -0.00000000000E+00 -0.41707974576E+03  0.41707974577E+03  0.25500000000E-02 0.  1.
          2    1    1    2    0  502 -0.12106967551E+02  0.22577486348E+02 -0.25954982824E+03  0.26081110961E+03  0.25500000000E-02 0.  1.
         -2    1    1    2  502    0  0.12106967551E+02 -0.22577486348E+02 -0.15585350888E+03  0.15794504674E+03  0.25500000000E-02 0.  1.
<mgrwt>
<rscale>  0 0.52884648E+02</rscale>
<asrwt>0</asrwt>
<pdfrwt beam="2">  1        2 0.64166032E-01 0.52884648E+02</pdfrwt>
<pdfrwt beam="1">  1       -2 0.25790950E-03 0.52884648E+02</pdfrwt>
<totfact> 0.82397561E+05</totfact>
</mgrwt>
</event>
<event>
 4    1  0.4696545E-002  0.7236507E+02  0.7818608E-02  0.1352230E+00
         -2   -1    0    0  501    0 -0.00000000000E+00  0.00000000000E+00  0.86244452229E+02  0.86244452267E+02  0.25500000000E-02 0. -1.
          2   -1    0    0    0  501  0.00000000000E+00 -0.00000000000E+00 -0.15179826051E+02  0.15179826265E+02  0.25500000000E-02 0. -1.
          2    1    1    2    0  502  0.39379593947E+01  0.30411899511E+02  0.62447621199E+02  0.69570802468E+02  0.25500000000E-02 0.  1.
         -2    1    1    2  502    0 -0.39379593947E+01 -0.30411899511E+02  0.86170049796E+01  0.31853476064E+02  0.25500000000E-02 0.  1.
<mgrwt>
<rscale>  0 0.72365069E+02</rscale>
<asrwt>0</asrwt>
<pdfrwt beam="2">  1        2 0.23353578E-02 0.72365069E+02</pdfrwt>
<pdfrwt beam="1">  1       -2 0.13268377E-01 0.72365069E+02</pdfrwt>
<totfact> 0.14749582E+05</totfact>
</mgrwt>
</event>
<event>
 4    1  0.4696545E-002  0.5441339E+02  0.7818608E-02  0.1422894E+00
         -2   -1    0    0  501    0 -0.00000000000E+00  0.00000000000E+00  0.42579191412E+02  0.42579191488E+02  0.25500000000E-02 0.  1.
          2   -1    0    0    0  501  0.00000000000E+00 -0.00000000000E+00 -0.17384175146E+02  0.17384175333E+02  0.25500000000E-02 0.  1.
          2    1    1    2    0  502  0.15126842763E+02 -0.20211994569E+02  0.23773841697E+02  0.34677682332E+02  0.25500000000E-02 0. -1.
         -2    1    1    2  502    0 -0.15126842763E+02  0.20211994569E+02  0.14211745694E+01  0.25285684489E+02  0.25500000000E-02 0. -1.
<mgrwt>
<rscale>  0 0.54413385E+02</rscale>
<asrwt>0</asrwt>
<pdfrwt beam="2">  1        2 0.26744885E-02 0.54413385E+02</pdfrwt>
<pdfrwt beam="1">  1       -2 0.65506448E-02 0.54413385E+02</pdfrwt>
<totfact> 0.34233721E+05</totfact>
</mgrwt>
</event>
<event>
 4    1  0.4696545E-002  0.5754950E+02  0.7818608E-02  0.1408413E+00
          2   -1    0    0    0  501  0.00000000000E+00  0.00000000000E+00  0.16841456039E+04  0.16841456039E+04  0.25500000000E-02 0.  1.
         -2   -1    0    0  501    0 -0.00000000000E+00 -0.00000000000E+00 -0.49163246533E+00  0.49163907846E+00  0.25500000000E-02 0.  1.
          2    1    1    2    0  502 -0.16582754348E+02 -0.21465126460E+02  0.11229785856E+04  0.11233061217E+04  0.25500000000E-02 0.  1.
         -2    1    1    2  502    0  0.16582754348E+02  0.21465126460E+02  0.56067538584E+03  0.56133112125E+03  0.25500000000E-02 0.  1.
<mgrwt>
<rscale>  0 0.57549500E+02</rscale>
<asrwt>0</asrwt>
<pdfrwt beam="1">  1        2 0.25910014E+00 0.57549500E+02</pdfrwt>
<pdfrwt beam="2">  1       -2 0.75636035E-04 0.57549500E+02</pdfrwt>
<totfact> 0.73197072E+05</totfact>
</mgrwt>
</event>
<event>
 4    1  0.4696545E-002  0.4694158E+02  0.7818608E-02  0.1462572E+00
          2   -1    0    0    0  501  0.00000000000E+00  0.00000000000E+00  0.37967439942E+01  0.37967448505E+01  0.25500000000E-02 0. -1.
         -2   -1    0    0  501    0 -0.00000000000E+00 -0.00000000000E+00 -0.14509218204E+03  0.14509218206E+03  0.25500000000E-02 0. -1.
          2    1    1    2    0  502 -0.10503556572E+02 -0.18450074822E+02 -0.38906340356E+02  0.44321927847E+02  0.25500000000E-02 0. -1.
         -2    1    1    2  502    0  0.10503556572E+02  0.18450074822E+02 -0.10238909769E+03  0.10456699906E+03  0.25500000000E-02 0. -1.
<mgrwt>
<rscale>  0 0.46941578E+02</rscale>
<asrwt>0</asrwt>
<pdfrwt beam="1">  1        2 0.58411464E-03 0.46941578E+02</pdfrwt>
<pdfrwt beam="2">  1       -2 0.22321870E-01 0.46941578E+02</pdfrwt>
<totfact> 0.37009413E+05</totfact>
</mgrwt>
</event>
<event>
 4    1  0.4696545E-002  0.5909104E+02  0.7818608E-02  0.1401686E+00
          2   -1    0    0    0  501  0.00000000000E+00  0.00000000000E+00  0.22662847893E+03  0.22662847895E+03  0.25500000000E-02 0.  1.
         -2   -1    0    0  501    0 -0.00000000000E+00 -0.00000000000E+00 -0.38518449092E+01  0.38518457532E+01  0.25500000000E-02 0.  1.
          2    1    1    2    0  502  0.15039438177E+02  0.24912580929E+02  0.13132116343E+03  0.13450676325E+03  0.25500000000E-02 0.  1.
         -2    1    1    2  502    0 -0.15039438177E+02 -0.24912580929E+02  0.91455470596E+02  0.95973561451E+02  0.25500000000E-02 0.  1.
<mgrwt>
<rscale>  0 0.59091043E+02</rscale>
<asrwt>0</asrwt>
<pdfrwt beam="1">  1        2 0.34865923E-01 0.59091043E+02</pdfrwt>
<pdfrwt beam="2">  1       -2 0.59259153E-03 0.59091043E+02</pdfrwt>
<totfact> 0.50354897E+05</totfact>
</mgrwt>
</event>
<event>
 4    1  0.4696545E-002  0.5122172E+02  0.7818608E-02  0.1438861E+00
          2   -1    0    0    0  501  0.00000000000E+00  0.00000000000E+00  0.25718041141E+01  0.25718053783E+01  0.25500000000E-02 0.  1.
         -2   -1    0    0  501    0 -0.00000000000E+00 -0.00000000000E+00 -0.25504118838E+03  0.25504118839E+03  0.25500000000E-02 0.  1.
          2    1    1    2    0  502 -0.64699216298E+01 -0.24058065954E+02 -0.96367806500E+02  0.99535946067E+02  0.25500000000E-02 0.  1.
         -2    1    1    2  502    0  0.64699216298E+01  0.24058065954E+02 -0.15610157776E+03  0.15807704770E+03  0.25500000000E-02 0.  1.
<mgrwt>
<rscale>  0 0.51221720E+02</rscale>
<asrwt>0</asrwt>
<pdfrwt beam="1">  1        2 0.39566247E-03 0.51221720E+02</pdfrwt>
<pdfrwt beam="2">  1       -2 0.39237086E-01 0.51221720E+02</pdfrwt>
<totfact> 0.23814544E+05</totfact>
</mgrwt>
</event>
<event>
 4    1  0.4696545E-002  0.4914987E+02  0.7818608E-02  0.1449982E+00
         -2   -1    0    0  501    0 -0.00000000000E+00  0.00000000000E+00  0.38606708685E+00  0.38607550823E+00  0.25500000000E-02 0. -1.
          2   -1    0    0    0  501  0.00000000000E+00 -0.00000000000E+00 -0.15642896556E+04  0.15642896556E+04  0.25500000000E-02 0. -1.
          2    1    1    2    0  502  0.20917027677E+02  0.11128459652E+01 -0.11910838072E+04  0.11912679784E+04  0.25500000000E-02 0.  1.
         -2    1    1    2  502    0 -0.20917027677E+02 -0.11128459652E+01 -0.37281978125E+03  0.37340775270E+03  0.25500000000E-02 0.  1.
<mgrwt>
<rscale>  0 0.49149866E+02</rscale>
<asrwt>0</asrwt>
<pdfrwt beam="2">  1        2 0.24065487E+00 0.49149866E+02</pdfrwt>
<pdfrwt beam="1">  1       -2 0.59396837E-04 0.49149866E+02</pdfrwt>
<totfact> 0.11248899E+06</totfact>
</mgrwt>
</event>
<event>
 4    1  0.4696545E-002  0.4613112E+02  0.7818608E-02  0.1467401E+00
          2   -1    0    0    0  501  0.00000000000E+00  0.00000000000E+00  0.91824258652E+03  0.91824258653E+03  0.25500000000E-02 0.  1.
         -2   -1    0    0  501    0 -0.00000000000E+00 -0.00000000000E+00 -0.57938672309E+00  0.57939233460E+00  0.25500000000E-02 0.  1.
          2    1    1    2    0  502 -0.20365007469E+02  0.28805287806E+01  0.25089592962E+03  0.25173755874E+03  0.25500000000E-02 0. -1.
         -2    1    1    2  502    0  0.20365007469E+02 -0.28805287806E+01  0.66676727018E+03  0.66708442012E+03  0.25500000000E-02 0. -1.
<mgrwt>
<rscale>  0 0.46131124E+02</rscale>
<asrwt>0</asrwt>
<pdfrwt beam="1">  1        2 0.14126750E+00 0.46131124E+02</pdfrwt>
<pdfrwt beam="2">  1       -2 0.89137225E-04 0.46131124E+02</pdfrwt>
<totfact> 0.14024793E+06</totfact>
</mgrwt>
</event>
<event>
 4    1  0.4696545E-002  0.5332318E+02  0.7818608E-02  0.1428199E+00
          2   -1    0    0    0  501  0.00000000000E+00  0.00000000000E+00  0.12781825553E+04  0.12781825553E+04  0.25500000000E-02 0. -1.
         -2   -1    0    0  501    0 -0.00000000000E+00 -0.00000000000E+00 -0.55613080984E+00  0.55613665600E+00  0.25500000000E-02 0. -1.
          2    1    1    2    0  502 -0.23527639907E+02 -0.11641641184E+02  0.52694080873E+03  0.52759425088E+03  0.25500000000E-02 0.  1.
         -2    1    1    2  502    0  0.23527639907E+02  0.11641641184E+02  0.75068561580E+03  0.75114444112E+03  0.25500000000E-02 0.  1.
<mgrwt>
<rscale>  0 0.53323182E+02</rscale>
<asrwt>0</asrwt>
<pdfrwt beam="1">  1        2 0.19664192E+00 0.53323182E+02</pdfrwt>
<pdfrwt beam="2">  1       -2 0.85559710E-04 0.53323182E+02</pdfrwt>
<totfact> 0.97390754E+05</totfact>
</mgrwt>
</event>
<event>
 4    1  0.4696545E-002  0.4894305E+02  0.7818608E-02  0.1451127E+00
         -2   -1    0    0  501    0 -0.00000000000E+00  0.00000000000E+00  0.37405911670E+02  0.37405911757E+02  0.25500000000E-02 0.  1.
          2   -1    0    0    0  501  0.00000000000E+00 -0.00000000000E+00 -0.16009651814E+02  0.16009652017E+02  0.25500000000E-02 0.  1.
          2    1    1    2    0  502  0.16350408259E+02 -0.17863420178E+02  0.68521904685E+01  0.25167243620E+02  0.25500000000E-02 0.  1.
         -2    1    1    2  502    0 -0.16350408259E+02  0.17863420178E+02  0.14544069387E+02  0.28248320154E+02  0.25500000000E-02 0.  1.
<mgrwt>
<rscale>  0 0.48943054E+02</rscale>
<asrwt>0</asrwt>
<pdfrwt beam="2">  1        2 0.24630234E-02 0.48943054E+02</pdfrwt>
<pdfrwt beam="1">  1       -2 0.57547556E-02 0.48943054E+02</pdfrwt>
<totfact> 0.45018514E+05</totfact>
</mgrwt>
</event>
<event>
 4    1  0.4696545E-002  0.4274974E+02  0.7818608E-02  0.1488899E+00
          2   -1    0    0    0  501  0.00000000000E+00  0.00000000000E+00  0.15748352205E+03  0.15748352207E+03  0.25500000000E-02 0.  1.
         -2   -1    0    0  501    0 -0.00000000000E+00 -0.00000000000E+00 -0.29011605533E+01  0.29011616740E+01  0.25500000000E-02 0.  1.
          2    1    1    2    0  502 -0.12946000701E+02  0.15500013392E+02  0.10356272972E+03  0.10551345100E+03  0.25500000000E-02 0.  1.
         -2    1    1    2  502    0  0.12946000701E+02 -0.15500013392E+02  0.51019631779E+02  0.54871232743E+02  0.25500000000E-02 0.  1.
<mgrwt>
<rscale>  0 0.42749740E+02</rscale>
<asrwt>0</asrwt>
<pdfrwt beam="1">  1        2 0.24228244E-01 0.42749740E+02</pdfrwt>
<pdfrwt beam="2">  1       -2 0.44633231E-03 0.42749740E+02</pdfrwt>
<totfact> 0.10066811E+06</totfact>
</mgrwt>
</event>
<event>
 4    1  0.4696545E-002  0.5435858E+02  0.7818608E-02  0.1423157E+00
          2   -1    0    0    0  501  0.00000000000E+00  0.00000000000E+00  0.17071810727E+03  0.17071810729E+03  0.25500000000E-02 0.  1.
         -2   -1    0    0  501    0 -0.00000000000E+00 -0.00000000000E+00 -0.43270959748E+01  0.43270967262E+01  0.25500000000E-02 0.  1.
          2    1    1    2    0  502 -0.39586468829E+01  0.26681069036E+02  0.93954699162E+02  0.97749863587E+02  0.25500000000E-02 0. -1.
         -2    1    1    2  502    0  0.39586468829E+01 -0.26681069036E+02  0.72436312136E+02  0.77295340432E+02  0.25500000000E-02 0. -1.
<mgrwt>
<rscale>  0 0.54358576E+02</rscale>
<asrwt>0</asrwt>
<pdfrwt beam="1">  1        2 0.26264328E-01 0.54358576E+02</pdfrwt>
<pdfrwt beam="2">  1       -2 0.66570704E-03 0.54358576E+02</pdfrwt>
<totfact> 0.56627119E+05</totfact>
</mgrwt>
</event>
<event>
 4    1  0.4696545E-002  0.5680492E+02  0.7818608E-02  0.1411751E+00
          2   -1    0    0    0  501  0.00000000000E+00  0.00000000000E+00  0.87277113354E+03  0.87277113354E+03  0.25500000000E-02 0. -1.
         -2   -1    0    0  501    0 -0.00000000000E+00 -0.00000000000E+00 -0.92429520137E+00  0.92429871891E+00  0.25500000000E-02 0. -1.
          2    1    1    2    0  502 -0.90983357489E+01 -0.21780163868E+02  0.19295597915E+03  0.19439435472E+03  0.25500000000E-02 0.  1.
         -2    1    1    2  502    0  0.90983357489E+01  0.21780163868E+02  0.67889085919E+03  0.67930107754E+03  0.25500000000E-02 0.  1.
<mgrwt>
<rscale>  0 0.56804919E+02</rscale>
<asrwt>0</asrwt>
<pdfrwt beam="1">  1        2 0.13427253E+00 0.56804919E+02</pdfrwt>
<pdfrwt beam="2">  1       -2 0.14219948E-03 0.56804919E+02</pdfrwt>
<totfact> 0.83336458E+05</totfact>
</mgrwt>
</event>
<event>
 4    1  0.4696545E-002  0.6991829E+02  0.7818608E-02  0.1360371E+00
         -2   -1    0    0  501    0 -0.00000000000E+00  0.00000000000E+00  0.22709537993E+01  0.22709552310E+01  0.25500000000E-02 0. -1.
          2   -1    0    0    0  501  0.00000000000E+00 -0.00000000000E+00 -0.53816222148E+03  0.53816222149E+03  0.25500000000E-02 0. -1.
          2    1    1    2    0  502 -0.33552918007E+02 -0.46979718472E+01 -0.20133160148E+03  0.20416239371E+03  0.25500000000E-02 0. -1.
         -2    1    1    2  502    0  0.33552918007E+02  0.46979718472E+01 -0.33455966620E+03  0.33627078300E+03  0.25500000000E-02 0. -1.
<mgrwt>
<rscale>  0 0.69918293E+02</rscale>
<asrwt>0</asrwt>
<pdfrwt beam="2">  1        2 0.82794086E-01 0.69918293E+02</pdfrwt>
<pdfrwt beam="1">  1       -2 0.34937805E-03 0.69918293E+02</pdfrwt>
<totfact> 0.44077680E+05</totfact>
</mgrwt>
</event>
<event>
 4    1  0.4696545E-002  0.7177618E+02  0.7818608E-02  0.1354155E+00
         -2   -1    0    0  501    0 -0.00000000000E+00  0.00000000000E+00  0.20007782535E+01  0.20007798785E+01  0.25500000000E-02 0.  1.
          2   -1    0    0    0  501  0.00000000000E+00 -0.00000000000E+00 -0.64372676957E+03  0.64372676958E+03  0.25500000000E-02 0.  1.
          2    1    1    2    0  502  0.27701377289E+02  0.17030812227E+02 -0.18426564560E+03  0.18711291517E+03  0.25500000000E-02 0.  1.
         -2    1    1    2  502    0 -0.27701377289E+02 -0.17030812227E+02 -0.45746034572E+03  0.45861463429E+03  0.25500000000E-02 0.  1.
<mgrwt>
<rscale>  0 0.71776181E+02</rscale>
<asrwt>0</asrwt>
<pdfrwt beam="2">  1        2 0.99034723E-01 0.71776181E+02</pdfrwt>
<pdfrwt beam="1">  1       -2 0.30781268E-03 0.71776181E+02</pdfrwt>
<totfact> 0.43336818E+05</totfact>
</mgrwt>
</event>
<event>
 4    1  0.4696545E-002  0.5584800E+02  0.7818608E-02  0.1416131E+00
         -2   -1    0    0  501    0 -0.00000000000E+00  0.00000000000E+00  0.23367417346E+02  0.23367417485E+02  0.25500000000E-02 0. -1.
          2   -1    0    0    0  501  0.00000000000E+00 -0.00000000000E+00 -0.33369097737E+02  0.33369097834E+02  0.25500000000E-02 0. -1.
          2    1    1    2    0  502 -0.27261529958E+02 -0.25422399658E+01  0.57238790316E+00  0.27385792559E+02  0.25500000000E-02 0.  1.
         -2    1    1    2  502    0  0.27261529958E+02  0.25422399658E+01 -0.10574068294E+02  0.29350722759E+02  0.25500000000E-02 0.  1.
<mgrwt>
<rscale>  0 0.55847995E+02</rscale>
<asrwt>0</asrwt>
<pdfrwt beam="2">  1        2 0.51337074E-02 0.55847995E+02</pdfrwt>
<pdfrwt beam="1">  1       -2 0.35949873E-02 0.55847995E+02</pdfrwt>
<totfact> 0.35698512E+05</totfact>
</mgrwt>
</event>
<event>
 4    1  0.4696545E-002  0.5225217E+02  0.7818608E-02  0.1433559E+00
          2   -1    0    0    0  501  0.00000000000E+00  0.00000000000E+00  0.28273962877E+03  0.28273962878E+03  0.25500000000E-02 0.  1.
         -2   -1    0    0  501    0 -0.00000000000E+00 -0.00000000000E+00 -0.24141367632E+01  0.24141381099E+01  0.25500000000E-02 0.  1.
          2    1    1    2    0  502 -0.19669064999E+02  0.16832978708E+02  0.15934176345E+03  0.16143115832E+03  0.25500000000E-02 0. -1.
         -2    1    1    2  502    0  0.19669064999E+02 -0.16832978708E+02  0.12098372855E+03  0.12372260857E+03  0.25500000000E-02 0. -1.
<mgrwt>
<rscale>  0 0.52252170E+02</rscale>
<asrwt>0</asrwt>
<pdfrwt beam="1">  1        2 0.43498391E-01 0.52252170E+02</pdfrwt>
<pdfrwt beam="2">  1       -2 0.37140587E-03 0.52252170E+02</pdfrwt>
<totfact> 0.74228702E+05</totfact>
</mgrwt>
</event>
<event>
 4    1  0.4696545E-002  0.4264336E+02  0.7818608E-02  0.1489614E+00
         -2   -1    0    0  501    0 -0.00000000000E+00  0.00000000000E+00  0.46358477225E+02  0.46358477295E+02  0.25500000000E-02 0.  1.
          2   -1    0    0    0  501  0.00000000000E+00 -0.00000000000E+00 -0.98064920999E+01  0.98064924315E+01  0.25500000000E-02 0.  1.
          2    1    1    2    0  502  0.13119737737E+02 -0.15910988370E+02  0.25408590595E+02  0.32724357163E+02  0.25500000000E-02 0.  1.
         -2    1    1    2  502    0 -0.13119737737E+02  0.15910988370E+02  0.11143394530E+02  0.23440612564E+02  0.25500000000E-02 0.  1.
<mgrwt>
<rscale>  0 0.42643361E+02</rscale>
<asrwt>0</asrwt>
<pdfrwt beam="2">  1        2 0.15086911E-02 0.42643361E+02</pdfrwt>
<pdfrwt beam="1">  1       -2 0.71320734E-02 0.42643361E+02</pdfrwt>
<totfact> 0.60378896E+05</totfact>
</mgrwt>
</event>
<event>
 4    1  0.4696545E-002  0.6955137E+02  0.7818608E-02  0.1361625E+00
         -2   -1    0    0  501    0 -0.00000000000E+00  0.00000000000E+00  0.83677389787E+00  0.83677778332E+00  0.25500000000E-02 0.  1.
          2   -1    0    0    0  501  0.00000000000E+00 -0.00000000000E+00 -0.14452475769E+04  0.14452475769E+04  0.25500000000E-02 0.  1.
          2    1    1    2    0  502 -0.25739905027E+02  0.85282721778E+00 -0.12080701280E+04  0.12083446131E+04  0.25500000000E-02 0. -1.
         -2    1    1    2  502    0  0.25739905027E+02 -0.85282721778E+00 -0.23634067507E+03  0.23773974158E+03  0.25500000000E-02 0. -1.
<mgrwt>
<rscale>  0 0.69551370E+02</rscale>
<asrwt>0</asrwt>
<pdfrwt beam="2">  1        2 0.22234378E+00 0.69551370E+02</pdfrwt>
<pdfrwt beam="1">  1       -2 0.12873590E-03 0.69551370E+02</pdfrwt>
<totfact> 0.48321511E+05</totfact>
</mgrwt>
</event>
<event>
 4    1  0.4696545E-002  0.5445868E+02  0.7818608E-02  0.1422676E+00
          2   -1    0    0    0  501  0.00000000000E+00  0.00000000000E+00  0.23762148421E+04  0.23762148421E+04  0.25500000000E-02 0.  1.
         -2   -1    0    0  501    0 -0.00000000000E+00 -0.00000000000E+00 -0.31201913053E+00  0.31202955039E+00  0.25500000000E-02 0.  1.
          2    1    1    2    0  502  0.23761671209E+02 -0.15230359613E+01  0.61148551636E+03  0.61194891403E+03  0.25500000000E-02 0. -1.
         -2    1    1    2  502    0 -0.23761671209E+02  0.15230359613E+01  0.17644173066E+04  0.17645779577E+04  0.25500000000E-02 0. -1.
<mgrwt>
<rscale>  0 0.54458677E+02</rscale>
<asrwt>0</asrwt>
<pdfrwt beam="1">  1        2 0.36557166E+00 0.54458677E+02</pdfrwt>
<pdfrwt beam="2">  1       -2 0.48003725E-04 0.54458677E+02</pdfrwt>
<totfact> 0.61029521E+05</totfact>
</mgrwt>
</event>
<event>
 4    1  0.4696545E-002  0.1553637E+03  0.7818608E-02  0.1194033E+00
         -2   -1    0    0  501    0 -0.00000000000E+00  0.00000000000E+00  0.15666918567E+02  0.15666918774E+02  0.25500000000E-02 0.  1.
          2   -1    0    0    0  501  0.00000000000E+00 -0.00000000000E+00 -0.38517284177E+03  0.38517284177E+03  0.25500000000E-02 0.  1.
          2    1    1    2    0  502  0.12610755359E+02  0.57107388802E+02 -0.31666652890E+03  0.32202170042E+03  0.25500000000E-02 0. -1.
         -2    1    1    2  502    0 -0.12610755359E+02 -0.57107388802E+02 -0.52839394295E+02  0.78818060129E+02  0.25500000000E-02 0. -1.
<mgrwt>
<rscale>  0 0.15536372E+03</rscale>
<asrwt>0</asrwt>
<pdfrwt beam="2">  1        2 0.59257353E-01 0.15536372E+03</pdfrwt>
<pdfrwt beam="1">  1       -2 0.24102955E-02 0.15536372E+03</pdfrwt>
<totfact> 0.45796303E+04</totfact>
</mgrwt>
</event>
<event>
 4    1  0.4696545E-002  0.6472527E+02  0.7818608E-02  0.1379008E+00
          2   -1    0    0    0  501  0.00000000000E+00  0.00000000000E+00  0.44276678090E+03  0.44276678091E+03  0.25500000000E-02 0. -1.
         -2   -1    0    0  501    0 -0.00000000000E+00 -0.00000000000E+00 -0.23654436384E+01  0.23654450129E+01  0.25500000000E-02 0. -1.
          2    1    1    2    0  502  0.22639974240E+02 -0.15510742331E+02  0.10224248310E+03  0.10586159321E+03  0.25500000000E-02 0. -1.
         -2    1    1    2  502    0 -0.22639974240E+02  0.15510742331E+02  0.33815885417E+03  0.33927063271E+03  0.25500000000E-02 0. -1.
<mgrwt>
<rscale>  0 0.64725271E+02</rscale>
<asrwt>0</asrwt>
<pdfrwt beam="1">  1        2 0.68117911E-01 0.64725271E+02</pdfrwt>
<pdfrwt beam="2">  1       -2 0.36391481E-03 0.64725271E+02</pdfrwt>
<totfact> 0.50467224E+05</totfact>
</mgrwt>
</event>
<event>
 4    1  0.4696545E-002  0.4098237E+02  0.7818608E-02  0.1501104E+00
          2   -1    0    0    0  501  0.00000000000E+00  0.00000000000E+00  0.51614853927E+03  0.51614853927E+03  0.25500000000E-02 0. -1.
         -2   -1    0    0  501    0 -0.00000000000E+00 -0.00000000000E+00 -0.81350157179E+00  0.81350556840E+00  0.25500000000E-02 0. -1.
          2    1    1    2    0  502 -0.10179371622E+02  0.17604069625E+02  0.28949396502E+03  0.29020730291E+03  0.25500000000E-02 0.  1.
         -2    1    1    2  502    0  0.10179371622E+02 -0.17604069625E+02  0.22584107268E+03  0.22675474193E+03  0.25500000000E-02 0.  1.
<mgrwt>
<rscale>  0 0.40982371E+02</rscale>
<asrwt>0</asrwt>
<pdfrwt beam="1">  1        2 0.79407542E-01 0.40982371E+02</pdfrwt>
<pdfrwt beam="2">  1       -2 0.12515428E-03 0.40982371E+02</pdfrwt>
<totfact> 0.16487957E+06</totfact>
</mgrwt>
</event>
<event>
 4    1  0.4696545E-002  0.8569690E+02  0.7818608E-02  0.1313620E+00
          2   -1    0    0    0  501  0.00000000000E+00  0.00000000000E+00  0.15230488218E+02  0.15230488431E+02  0.25500000000E-02 0. -1.
         -2   -1    0    0  501    0 -0.00000000000E+00 -0.00000000000E+00 -0.12054700169E+03  0.12054700171E+03  0.25500000000E-02 0. -1.
          2    1    1    2    0  502  0.33819264334E+02  0.26103421607E+02 -0.57879168543E+02  0.71938372357E+02  0.25500000000E-02 0.  1.
         -2    1    1    2  502    0 -0.33819264334E+02 -0.26103421607E+02 -0.47437344926E+02  0.63839117787E+02  0.25500000000E-02 0.  1.
<mgrwt>
<rscale>  0 0.85696901E+02</rscale>
<asrwt>0</asrwt>
<pdfrwt beam="1">  1        2 0.23431521E-02 0.85696901E+02</pdfrwt>
<pdfrwt beam="2">  1       -2 0.18545692E-01 0.85696901E+02</pdfrwt>
<totfact> 0.87972611E+04</totfact>
</mgrwt>
</event>
<event>
 4    1  0.4696545E-002  0.4745495E+02  0.7818608E-02  0.1459573E+00
          2   -1    0    0    0  501  0.00000000000E+00  0.00000000000E+00  0.39236038916E+01  0.39236047203E+01  0.25500000000E-02 0.  1.
         -2   -1    0    0  501    0 -0.00000000000E+00 -0.00000000000E+00 -0.14348877660E+03  0.14348877662E+03  0.25500000000E-02 0.  1.
          2    1    1    2    0  502 -0.12407163822E+02  0.15851459838E+02 -0.10880261411E+03  0.11064906387E+03  0.25500000000E-02 0.  1.
         -2    1    1    2  502    0  0.12407163822E+02 -0.15851459838E+02 -0.30762558596E+02  0.36763317464E+02  0.25500000000E-02 0.  1.
<mgrwt>
<rscale>  0 0.47454955E+02</rscale>
<asrwt>0</asrwt>
<pdfrwt beam="1">  1        2 0.60363154E-03 0.47454955E+02</pdfrwt>
<pdfrwt beam="2">  1       -2 0.22075192E-01 0.47454955E+02</pdfrwt>
<totfact> 0.36170455E+05</totfact>
</mgrwt>
</event>
<event>
 4    1  0.4696545E-002  0.4216038E+02  0.7818608E-02  0.1492890E+00
          2   -1    0    0    0  501  0.00000000000E+00  0.00000000000E+00  0.79129347889E+03  0.79129347890E+03  0.25500000000E-02 0.  1.
         -2   -1    0    0  501    0 -0.00000000000E+00 -0.00000000000E+00 -0.56157686195E+00  0.56158265142E+00  0.25500000000E-02 0.  1.
          2    1    1    2    0  502  0.17408801316E+02  0.11740860501E+02  0.36042831525E+03  0.36103945021E+03  0.25500000000E-02 0.  1.
         -2    1    1    2  502    0 -0.17408801316E+02 -0.11740860501E+02  0.43030358678E+03  0.43081561134E+03  0.25500000000E-02 0.  1.
<mgrwt>
<rscale>  0 0.42160380E+02</rscale>
<asrwt>0</asrwt>
<pdfrwt beam="1">  1        2 0.12173735E+00 0.42160380E+02</pdfrwt>
<pdfrwt beam="2">  1       -2 0.86396966E-04 0.42160380E+02</pdfrwt>
<totfact> 0.17100986E+06</totfact>
</mgrwt>
</event>
<event>
 4    1  0.4696545E-002  0.5357544E+02  0.7818608E-02  0.1426958E+00
          2   -1    0    0    0  501  0.00000000000E+00  0.00000000000E+00  0.12514402776E+04  0.12514402776E+04  0.25500000000E-02 0.  1.
         -2   -1    0    0  501    0 -0.00000000000E+00 -0.00000000000E+00 -0.57340207428E+00  0.57340774436E+00  0.25500000000E-02 0.  1.
          2    1    1    2    0  502 -0.16088015442E+02 -0.19197721625E+02  0.84738550422E+03  0.84775560719E+03  0.25500000000E-02 0.  1.
         -2    1    1    2  502    0  0.16088015442E+02  0.19197721625E+02  0.40348137131E+03  0.40425807816E+03  0.25500000000E-02 0.  1.
<mgrwt>
<rscale>  0 0.53575442E+02</rscale>
<asrwt>0</asrwt>
<pdfrwt beam="1">  1        2 0.19252811E+00 0.53575442E+02</pdfrwt>
<pdfrwt beam="2">  1       -2 0.88216672E-04 0.53575442E+02</pdfrwt>
<totfact> 0.96574433E+05</totfact>
</mgrwt>
</event>
<event>
 4    1  0.4696545E-002  0.8748637E+02  0.7818608E-02  0.1309056E+00
         -2   -1    0    0  501    0 -0.00000000000E+00  0.00000000000E+00  0.26745116550E+02  0.26745116672E+02  0.25500000000E-02 0. -1.
          2   -1    0    0    0  501  0.00000000000E+00 -0.00000000000E+00 -0.71544501983E+02  0.71544502028E+02  0.25500000000E-02 0. -1.
          2    1    1    2    0  502  0.11462385603E+01 -0.42161044215E+02 -0.35433984477E+02  0.55085703904E+02  0.25500000000E-02 0.  1.
         -2    1    1    2  502    0 -0.11462385603E+01  0.42161044215E+02 -0.93654009554E+01  0.43203914796E+02  0.25500000000E-02 0.  1.
<mgrwt>
<rscale>  0 0.87486366E+02</rscale>
<asrwt>0</asrwt>
<pdfrwt beam="2">  1        2 0.11006846E-01 0.87486366E+02</pdfrwt>
<pdfrwt beam="1">  1       -2 0.41146334E-02 0.87486366E+02</pdfrwt>
<totfact> 0.12485203E+05</totfact>
</mgrwt>
</event>
<event>
 4    1  0.4696545E-002  0.9457593E+02  0.7818608E-02  0.1292134E+00
         -2   -1    0    0  501    0 -0.00000000000E+00  0.00000000000E+00  0.20090707025E+02  0.20090707187E+02  0.25500000000E-02 0. -1.
          2   -1    0    0    0  501  0.00000000000E+00 -0.00000000000E+00 -0.11130277583E+03  0.11130277586E+03  0.25500000000E-02 0. -1.
          2    1    1    2    0  502  0.10318320597E+02 -0.42623907242E+02 -0.21031433991E+02  0.48637294649E+02  0.25500000000E-02 0. -1.
         -2    1    1    2  502    0 -0.10318320597E+02  0.42623907242E+02 -0.70180634815E+02  0.82756188397E+02  0.25500000000E-02 0. -1.
<mgrwt>
<rscale>  0 0.94575927E+02</rscale>
<asrwt>0</asrwt>
<pdfrwt beam="2">  1        2 0.17123504E-01 0.94575927E+02</pdfrwt>
<pdfrwt beam="1">  1       -2 0.30908781E-02 0.94575927E+02</pdfrwt>
<totfact> 0.11465769E+05</totfact>
</mgrwt>
</event>
<event>
 4    1  0.4696545E-002  0.6224160E+02  0.7818608E-02  0.1388658E+00
         -2   -1    0    0  501    0 -0.00000000000E+00  0.00000000000E+00  0.15861224482E+01  0.15861244980E+01  0.25500000000E-02 0.  1.
          2   -1    0    0    0  501  0.00000000000E+00 -0.00000000000E+00 -0.61061077217E+03  0.61061077218E+03  0.25500000000E-02 0.  1.
          2    1    1    2    0  502 -0.30270999767E+02 -0.59715421967E+01 -0.26454533320E+03  0.26633855536E+03  0.25500000000E-02 0.  1.
         -2    1    1    2  502    0  0.30270999767E+02  0.59715421967E+01 -0.34447931652E+03  0.34585834132E+03  0.25500000000E-02 0.  1.
<mgrwt>
<rscale>  0 0.62241596E+02</rscale>
<asrwt>0</asrwt>
<pdfrwt beam="2">  1        2 0.93939931E-01 0.62241596E+02</pdfrwt>
<pdfrwt beam="1">  1       -2 0.24401948E-03 0.62241596E+02</pdfrwt>
<totfact> 0.61510094E+05</totfact>
</mgrwt>
</event>
<event>
 4    1  0.4696545E-002  0.4090352E+02  0.7818608E-02  0.1501666E+00
         -2   -1    0    0  501    0 -0.00000000000E+00  0.00000000000E+00  0.45142087437E+01  0.45142094639E+01  0.25500000000E-02 0. -1.
          2   -1    0    0    0  501  0.00000000000E+00 -0.00000000000E+00 -0.92657331351E+02  0.92657331386E+02  0.25500000000E-02 0. -1.
          2    1    1    2    0  502  0.81604209182E+01 -0.18697286023E+02 -0.47508915782E+02  0.51703752856E+02  0.25500000000E-02 0. -1.
         -2    1    1    2  502    0 -0.81604209182E+01  0.18697286023E+02 -0.40634206825E+02  0.45467787993E+02  0.25500000000E-02 0. -1.
<mgrwt>
<rscale>  0 0.40903524E+02</rscale>
<asrwt>0</asrwt>
<pdfrwt beam="2">  1        2 0.14254973E-01 0.40903524E+02</pdfrwt>
<pdfrwt beam="1">  1       -2 0.69449378E-03 0.40903524E+02</pdfrwt>
<totfact> 0.97049243E+05</totfact>
</mgrwt>
</event>
<event>
 4    1  0.4696545E-002  0.4891484E+02  0.7818608E-02  0.1451284E+00
          2   -1    0    0    0  501  0.00000000000E+00  0.00000000000E+00  0.51722258913E+02  0.51722258976E+02  0.25500000000E-02 0. -1.
         -2   -1    0    0  501    0 -0.00000000000E+00 -0.00000000000E+00 -0.11564950619E+02  0.11564950900E+02  0.25500000000E-02 0. -1.
          2    1    1    2    0  502  0.17088080602E+02  0.11262645481E+02  0.37404101840E+02  0.42637032294E+02  0.25500000000E-02 0. -1.
         -2    1    1    2  502    0 -0.17088080602E+02 -0.11262645481E+02  0.27532064543E+01  0.20650177582E+02  0.25500000000E-02 0. -1.
<mgrwt>
<rscale>  0 0.48914840E+02</rscale>
<asrwt>0</asrwt>
<pdfrwt beam="1">  1        2 0.79572705E-02 0.48914840E+02</pdfrwt>
<pdfrwt beam="2">  1       -2 0.17792232E-02 0.48914840E+02</pdfrwt>
<totfact> 0.54621906E+05</totfact>
</mgrwt>
</event>
<event>
 4    1  0.4696545E-002  0.4904976E+02  0.7818608E-02  0.1450535E+00
         -2   -1    0    0  501    0 -0.00000000000E+00  0.00000000000E+00  0.51927300732E+00  0.51927926844E+00  0.25500000000E-02 0.  1.
          2   -1    0    0    0  501  0.00000000000E+00 -0.00000000000E+00 -0.11582850658E+04  0.11582850658E+04  0.25500000000E-02 0.  1.
          2    1    1    2    0  502  0.28738498847E+01 -0.24002311026E+02 -0.67657721045E+03  0.67700893026E+03  0.25500000000E-02 0.  1.
         -2    1    1    2  502    0 -0.28738498847E+01  0.24002311026E+02 -0.48118858238E+03  0.48179541485E+03  0.25500000000E-02 0.  1.
<mgrwt>
<rscale>  0 0.49049762E+02</rscale>
<asrwt>0</asrwt>
<pdfrwt beam="2">  1        2 0.17819563E+00 0.49049762E+02</pdfrwt>
<pdfrwt beam="1">  1       -2 0.79889564E-04 0.49049762E+02</pdfrwt>
<totfact> 0.12118269E+06</totfact>
</mgrwt>
</event>
<event>
 4    1  0.4696545E-002  0.5125717E+02  0.7818608E-02  0.1438676E+00
          2   -1    0    0    0  501  0.00000000000E+00  0.00000000000E+00  0.40615977275E+03  0.40615977275E+03  0.25500000000E-02 0.  1.
         -2   -1    0    0  501    0 -0.00000000000E+00 -0.00000000000E+00 -0.16171563501E+01  0.16171583605E+01  0.25500000000E-02 0.  1.
          2    1    1    2    0  502  0.11795127214E+02  0.21991793568E+02  0.15584202484E+03  0.15782743970E+03  0.25500000000E-02 0.  1.
         -2    1    1    2  502    0 -0.11795127214E+02 -0.21991793568E+02  0.24870059156E+03  0.24994949142E+03  0.25500000000E-02 0.  1.
<mgrwt>
<rscale>  0 0.51257166E+02</rscale>
<asrwt>0</asrwt>
<pdfrwt beam="1">  1        2 0.62486084E-01 0.51257166E+02</pdfrwt>
<pdfrwt beam="2">  1       -2 0.24879358E-03 0.51257166E+02</pdfrwt>
<totfact> 0.88281793E+05</totfact>
</mgrwt>
</event>
<event>
 4    1  0.4696545E-002  0.4431645E+02  0.7818608E-02  0.1478655E+00
          2   -1    0    0    0  501  0.00000000000E+00  0.00000000000E+00  0.11574077093E+03  0.11574077096E+03  0.25500000000E-02 0.  1.
         -2   -1    0    0  501    0 -0.00000000000E+00 -0.00000000000E+00 -0.42421250930E+01  0.42421258594E+01  0.25500000000E-02 0.  1.
          2    1    1    2    0  502  0.13671909117E+02 -0.17417513753E+02  0.53490643863E+02  0.57892485450E+02  0.25500000000E-02 0.  1.
         -2    1    1    2  502    0 -0.13671909117E+02  0.17417513753E+02  0.58008001974E+02  0.62090411368E+02  0.25500000000E-02 0.  1.
<mgrwt>
<rscale>  0 0.44316447E+02</rscale>
<asrwt>0</asrwt>
<pdfrwt beam="1">  1        2 0.17806273E-01 0.44316447E+02</pdfrwt>
<pdfrwt beam="2">  1       -2 0.65263468E-03 0.44316447E+02</pdfrwt>
<totfact> 0.84257593E+05</totfact>
</mgrwt>
</event>
<event>
 4    1  0.4696545E-002  0.7281008E+02  0.7818608E-02  0.1350790E+00
          2   -1    0    0    0  501  0.00000000000E+00  0.00000000000E+00  0.14433245613E+02  0.14433245838E+02  0.25500000000E-02 0. -1.
         -2   -1    0    0  501    0 -0.00000000000E+00 -0.00000000000E+00 -0.91824593709E+02  0.91824593744E+02  0.25500000000E-02 0. -1.
          2    1    1    2    0  502 -0.56326016407E+01  0.24996684309E+02 -0.95525412472E+00  0.25641235240E+02  0.25500000000E-02 0.  1.
         -2    1    1    2  502    0  0.56326016407E+01 -0.24996684309E+02 -0.76436093971E+02  0.80616604342E+02  0.25500000000E-02 0.  1.
<mgrwt>
<rscale>  0 0.72810080E+02</rscale>
<asrwt>0</asrwt>
<pdfrwt beam="1">  1        2 0.22204994E-02 0.72810080E+02</pdfrwt>
<pdfrwt beam="2">  1       -2 0.14126860E-01 0.72810080E+02</pdfrwt>
<totfact> 0.14293120E+05</totfact>
</mgrwt>
</event>
<event>
 4    1  0.4696545E-002  0.5022279E+02  0.7818608E-02  0.1444144E+00
         -2   -1    0    0  501    0 -0.00000000000E+00  0.00000000000E+00  0.22067615392E+01  0.22067630126E+01  0.25500000000E-02 0. -1.
          2   -1    0    0    0  501  0.00000000000E+00 -0.00000000000E+00 -0.28574993094E+03  0.28574993095E+03  0.25500000000E-02 0. -1.
          2    1    1    2    0  502  0.23857768260E+02 -0.49664507769E+01 -0.10702613564E+03  0.10976544291E+03  0.25500000000E-02 0.  1.
         -2    1    1    2  502    0 -0.23857768260E+02  0.49664507769E+01 -0.17651703376E+03  0.17819125106E+03  0.25500000000E-02 0.  1.
<mgrwt>
<rscale>  0 0.50222790E+02</rscale>
<asrwt>0</asrwt>
<pdfrwt beam="2">  1        2 0.43961499E-01 0.50222790E+02</pdfrwt>
<pdfrwt beam="1">  1       -2 0.33950212E-03 0.50222790E+02</pdfrwt>
<totfact> 0.82254126E+05</totfact>
</mgrwt>
</event>
<event>
 4    1  0.4696545E-002  0.5058859E+02  0.7818608E-02  0.1442192E+00
          2   -1    0    0    0  501  0.00000000000E+00  0.00000000000E+00  0.40731996747E+02  0.40731996827E+02  0.25500000000E-02 0.  1.
         -2   -1    0    0  501    0 -0.00000000000E+00 -0.00000000000E+00 -0.15707585178E+02  0.15707585385E+02  0.25500000000E-02 0.  1.
          2    1    1    2    0  502 -0.20544507548E+02 -0.25087505976E+01 -0.37101993625E+01  0.21027035116E+02  0.25500000000E-02 0.  1.
         -2    1    1    2  502    0  0.20544507548E+02  0.25087505976E+01  0.28734610931E+02  0.35412547096E+02  0.25500000000E-02 0.  1.
<mgrwt>
<rscale>  0 0.50588588E+02</rscale>
<asrwt>0</asrwt>
<pdfrwt beam="1">  1        2 0.62664609E-02 0.50588588E+02</pdfrwt>
<pdfrwt beam="2">  1       -2 0.24165516E-02 0.50588588E+02</pdfrwt>
<totfact> 0.47939691E+05</totfact>
</mgrwt>
</event>
<event>
 4    1  0.4696545E-002  0.1094112E+03  0.7818608E-02  0.1261664E+00
         -2   -1    0    0  501    0 -0.00000000000E+00  0.00000000000E+00  0.20446583305E+02  0.20446583464E+02  0.25500000000E-02 0.  1.
          2   -1    0    0    0  501  0.00000000000E+00 -0.00000000000E+00 -0.14636684819E+03  0.14636684822E+03  0.25500000000E-02 0.  1.
          2    1    1    2    0  502  0.34757687647E+02 -0.22143275599E+02 -0.81092671193E+01  0.42002163332E+02  0.25500000000E-02 0. -1.
         -2    1    1    2  502    0 -0.34757687647E+02  0.22143275599E+02 -0.11781099777E+03  0.12481126835E+03  0.25500000000E-02 0. -1.
<mgrwt>
<rscale>  0 0.10941119E+03</rscale>
<asrwt>0</asrwt>
<pdfrwt beam="2">  1        2 0.22517976E-01 0.10941119E+03</pdfrwt>
<pdfrwt beam="1">  1       -2 0.31456283E-02 0.10941119E+03</pdfrwt>
<totfact> 0.83973983E+04</totfact>
</mgrwt>
</event>
<event>
 4    1  0.4696545E-002  0.5569709E+02  0.7818608E-02  0.1416831E+00
          2   -1    0    0    0  501  0.00000000000E+00  0.00000000000E+00  0.28384094046E+04  0.28384094046E+04  0.25500000000E-02 0.  1.
         -2   -1    0    0  501    0 -0.00000000000E+00 -0.00000000000E+00 -0.27322503996E+00  0.27323693923E+00  0.25500000000E-02 0.  1.
          2    1    1    2    0  502  0.25147606625E+02 -0.11863575189E+02  0.13401956084E+04  0.13404840228E+04  0.25500000000E-02 0.  1.
         -2    1    1    2  502    0 -0.25147606625E+02  0.11863575189E+02  0.14979405711E+04  0.14981986187E+04  0.25500000000E-02 0.  1.
<mgrwt>
<rscale>  0 0.55697088E+02</rscale>
<asrwt>0</asrwt>
<pdfrwt beam="1">  1        2 0.43664169E+00 0.55697088E+02</pdfrwt>
<pdfrwt beam="2">  1       -2 0.42039069E-04 0.55697088E+02</pdfrwt>
<totfact> 0.42081392E+05</totfact>
</mgrwt>
</event>
<event>
 4    1  0.4696545E-002  0.8009012E+02  0.7818608E-02  0.1328796E+00
         -2   -1    0    0  501    0 -0.00000000000E+00  0.00000000000E+00  0.41837967119E+01  0.41837974890E+01  0.25500000000E-02 0.  1.
          2   -1    0    0    0  501  0.00000000000E+00 -0.00000000000E+00 -0.38328981583E+03  0.38328981584E+03  0.25500000000E-02 0.  1.
          2    1    1    2    0  502  0.21839489347E+01  0.39374993245E+02 -0.15587882860E+03  0.16078982847E+03  0.25500000000E-02 0.  1.
         -2    1    1    2  502    0 -0.21839489347E+01 -0.39374993245E+02 -0.22322719051E+03  0.22668378486E+03  0.25500000000E-02 0.  1.
<mgrwt>
<rscale>  0 0.80090120E+02</rscale>
<asrwt>0</asrwt>
<pdfrwt beam="2">  1        2 0.58967636E-01 0.80090120E+02</pdfrwt>
<pdfrwt beam="1">  1       -2 0.64366139E-03 0.80090120E+02</pdfrwt>
<totfact> 0.27673238E+05</totfact>
</mgrwt>
</event>
<event>
 4    1  0.4696545E-002  0.5903709E+02  0.7818608E-02  0.1401918E+00
          2   -1    0    0    0  501  0.00000000000E+00  0.00000000000E+00  0.21608969071E+03  0.21608969072E+03  0.25500000000E-02 0.  1.
         -2   -1    0    0  501    0 -0.00000000000E+00 -0.00000000000E+00 -0.40323275798E+01  0.40323283861E+01  0.25500000000E-02 0.  1.
          2    1    1    2    0  502 -0.13504478372E+02 -0.25084518878E+02  0.13484728272E+03  0.13782377765E+03  0.25500000000E-02 0.  1.
         -2    1    1    2  502    0  0.13504478372E+02  0.25084518878E+02  0.77210080412E+02  0.82298241458E+02  0.25500000000E-02 0.  1.
<mgrwt>
<rscale>  0 0.59037090E+02</rscale>
<asrwt>0</asrwt>
<pdfrwt beam="1">  1        2 0.33244577E-01 0.59037090E+02</pdfrwt>
<pdfrwt beam="2">  1       -2 0.62035798E-03 0.59037090E+02</pdfrwt>
<totfact> 0.49650803E+05</totfact>
</mgrwt>
</event>
<event>
 4    1  0.4696545E-002  0.5445398E+02  0.7818608E-02  0.1422699E+00
         -2   -1    0    0  501    0 -0.00000000000E+00  0.00000000000E+00  0.35765543393E+03  0.35765543394E+03  0.25500000000E-02 0.  1.
          2   -1    0    0    0  501  0.00000000000E+00 -0.00000000000E+00 -0.20726896547E+01  0.20726912233E+01  0.25500000000E-02 0.  1.
          2    1    1    2    0  502  0.16678593919E+02 -0.16813848267E+02  0.26652673652E+03  0.26757687172E+03  0.25500000000E-02 0.  1.
         -2    1    1    2  502    0 -0.16678593919E+02  0.16813848267E+02  0.89056007753E+02  0.92151253448E+02  0.25500000000E-02 0.  1.
<mgrwt>
<rscale>  0 0.54453981E+02</rscale>
<asrwt>0</asrwt>
<pdfrwt beam="2">  1        2 0.31887542E-03 0.54453981E+02</pdfrwt>
<pdfrwt beam="1">  1       -2 0.55023919E-01 0.54453981E+02</pdfrwt>
<totfact> 0.16966093E+05</totfact>
</mgrwt>
</event>
<event>
 4    1  0.4696545E-002  0.6205166E+02  0.7818608E-02  0.1389418E+00
         -2   -1    0    0  501    0 -0.00000000000E+00  0.00000000000E+00  0.45537662632E+00  0.45538376596E+00  0.25500000000E-02 0.  1.
          2   -1    0    0    0  501  0.00000000000E+00 -0.00000000000E+00 -0.21138426131E+04  0.21138426131E+04  0.25500000000E-02 0.  1.
          2    1    1    2    0  502 -0.27764406466E+02  0.12635727782E+02 -0.12496759950E+04  0.12500482456E+04  0.25500000000E-02 0. -1.
         -2    1    1    2  502    0  0.27764406466E+02 -0.12635727782E+02 -0.86371124146E+03  0.86424975124E+03  0.25500000000E-02 0. -1.
<mgrwt>
<rscale>  0 0.62051658E+02</rscale>
<asrwt>0</asrwt>
<pdfrwt beam="2">  1        2 0.32519870E+00 0.62051658E+02</pdfrwt>
<pdfrwt beam="1">  1       -2 0.70060184E-04 0.62051658E+02</pdfrwt>
<totfact> 0.50583976E+05</totfact>
</mgrwt>
</event>
<event>
 4    1  0.4696545E-002  0.1372615E+03  0.7818608E-02  0.1217062E+00
         -2   -1    0    0  501    0 -0.00000000000E+00  0.00000000000E+00  0.14521700682E+03  0.14521700684E+03  0.25500000000E-02 0.  1.
          2   -1    0    0    0  501  0.00000000000E+00 -0.00000000000E+00 -0.32435475379E+02  0.32435475479E+02  0.25500000000E-02 0.  1.
          2    1    1    2    0  502  0.19237266231E+02  0.64982644186E+02  0.42369283534E+02  0.79924793720E+02  0.25500000000E-02 0. -1.
         -2    1    1    2  502    0 -0.19237266231E+02 -0.64982644186E+02  0.70412247902E+02  0.97727688597E+02  0.25500000000E-02 0. -1.
<mgrwt>
<rscale>  0 0.13726154E+03</rscale>
<asrwt>0</asrwt>
<pdfrwt beam="2">  1        2 0.49900732E-02 0.13726154E+03</pdfrwt>
<pdfrwt beam="1">  1       -2 0.22341078E-01 0.13726154E+03</pdfrwt>
<totfact> 0.25189244E+04</totfact>
</mgrwt>
</event>
<event>
 4    1  0.4696545E-002  0.4158236E+02  0.7818608E-02  0.1496880E+00
          2   -1    0    0    0  501  0.00000000000E+00  0.00000000000E+00  0.78176094455E+03  0.78176094455E+03  0.25500000000E-02 0.  1.
         -2   -1    0    0  501    0 -0.00000000000E+00 -0.00000000000E+00 -0.55294500235E+00  0.55295088220E+00  0.25500000000E-02 0.  1.
          2    1    1    2    0  502  0.17138831931E+02 -0.11361134953E+02  0.33274443633E+03  0.33337917581E+03  0.25500000000E-02 0. -1.
         -2    1    1    2  502    0 -0.17138831931E+02  0.11361134953E+02  0.44846356322E+03  0.44893471963E+03  0.25500000000E-02 0. -1.
<mgrwt>
<rscale>  0 0.41582357E+02</rscale>
<asrwt>0</asrwt>
<pdfrwt beam="1">  1        2 0.12027021E+00 0.41582357E+02</pdfrwt>
<pdfrwt beam="2">  1       -2 0.85069412E-04 0.41582357E+02</pdfrwt>
<totfact> 0.17643395E+06</totfact>
</mgrwt>
</event>
<event>
 4    1  0.4696545E-002  0.4013257E+02  0.7818608E-02  0.1507238E+00
          2   -1    0    0    0  501  0.00000000000E+00  0.00000000000E+00  0.73733381646E+03  0.73733381646E+03  0.25500000000E-02 0. -1.
         -2   -1    0    0  501    0 -0.00000000000E+00 -0.00000000000E+00 -0.54609405557E+00  0.54610000918E+00  0.25500000000E-02 0. -1.
          2    1    1    2    0  502 -0.31223861122E+01  0.19784518778E+02  0.39075638784E+03  0.39126938434E+03  0.25500000000E-02 0.  1.
         -2    1    1    2  502    0  0.31223861122E+01 -0.19784518778E+02  0.34603133457E+03  0.34661053213E+03  0.25500000000E-02 0.  1.
<mgrwt>
<rscale>  0 0.40132571E+02</rscale>
<asrwt>0</asrwt>
<pdfrwt beam="1">  1        2 0.11343694E+00 0.40132571E+02</pdfrwt>
<pdfrwt beam="2">  1       -2 0.84014214E-04 0.40132571E+02</pdfrwt>
<totfact> 0.19004731E+06</totfact>
</mgrwt>
</event>
<event>
 4    1  0.4696545E-002  0.4732156E+02  0.7818608E-02  0.1460348E+00
          2   -1    0    0    0  501  0.00000000000E+00  0.00000000000E+00  0.15475224014E+04  0.15475224014E+04  0.25500000000E-02 0.  1.
         -2   -1    0    0  501    0 -0.00000000000E+00 -0.00000000000E+00 -0.36175601814E+00  0.36176500544E+00  0.25500000000E-02 0.  1.
          2    1    1    2    0  502  0.15570328975E+01  0.22576767050E+02  0.99948658390E+03  0.99974274999E+03  0.25500000000E-02 0. -1.
         -2    1    1    2  502    0 -0.15570328975E+01 -0.22576767050E+02  0.54767406146E+03  0.54814141639E+03  0.25500000000E-02 0. -1.
<mgrwt>
<rscale>  0 0.47321560E+02</rscale>
<asrwt>0</asrwt>
<pdfrwt beam="1">  1        2 0.23808376E+00 0.47321560E+02</pdfrwt>
<pdfrwt beam="2">  1       -2 0.55654672E-04 0.47321560E+02</pdfrwt>
<totfact> 0.12408318E+06</totfact>
</mgrwt>
</event>
<event>
 4    1  0.4696545E-002  0.1353644E+03  0.7818608E-02  0.1219706E+00
         -2   -1    0    0  501    0 -0.00000000000E+00  0.00000000000E+00  0.60211487894E+01  0.60211493293E+01  0.25500000000E-02 0. -1.
          2   -1    0    0    0  501  0.00000000000E+00 -0.00000000000E+00 -0.76079810819E+03  0.76079810819E+03  0.25500000000E-02 0. -1.
          2    1    1    2    0  502  0.57778889272E+02 -0.85111956996E+01 -0.18361753562E+03  0.19268170616E+03  0.25500000000E-02 0.  1.
         -2    1    1    2  502    0 -0.57778889272E+02  0.85111956996E+01 -0.57115942378E+03  0.57413755136E+03  0.25500000000E-02 0.  1.
<mgrwt>
<rscale>  0 0.13536438E+03</rscale>
<asrwt>0</asrwt>
<pdfrwt beam="2">  1        2 0.11704579E+00 0.13536438E+03</pdfrwt>
<pdfrwt beam="1">  1       -2 0.92633123E-03 0.13536438E+03</pdfrwt>
<totfact> 0.83447425E+04</totfact>
</mgrwt>
</event>
<event>
 4    1  0.4696545E-002  0.4284149E+02  0.7818608E-02  0.1488285E+00
          2   -1    0    0    0  501  0.00000000000E+00  0.00000000000E+00  0.24861475852E+03  0.24861475854E+03  0.25500000000E-02 0. -1.
         -2   -1    0    0  501    0 -0.00000000000E+00 -0.00000000000E+00 -0.18456188013E+01  0.18456205629E+01  0.25500000000E-02 0. -1.
          2    1    1    2    0  502  0.80594141114E+01  0.18691724671E+02  0.16238960270E+03  0.16366037333E+03  0.25500000000E-02 0. -1.
         -2    1    1    2  502    0 -0.80594141114E+01 -0.18691724671E+02  0.84379537025E+02  0.86800005772E+02  0.25500000000E-02 0. -1.
<mgrwt>
<rscale>  0 0.42841489E+02</rscale>
<asrwt>0</asrwt>
<pdfrwt beam="1">  1        2 0.38248418E-01 0.42841489E+02</pdfrwt>
<pdfrwt beam="2">  1       -2 0.28394154E-03 0.42841489E+02</pdfrwt>
<totfact> 0.11610670E+06</totfact>
</mgrwt>
</event>
<event>
 4    1  0.4696545E-002  0.5072651E+02  0.7818608E-02  0.1441462E+00
         -2   -1    0    0  501    0 -0.00000000000E+00  0.00000000000E+00  0.47989053576E+00  0.47989731070E+00  0.25500000000E-02 0. -1.
          2   -1    0    0    0  501  0.00000000000E+00 -0.00000000000E+00 -0.13404934582E+04  0.13404934582E+04  0.25500000000E-02 0. -1.
          2    1    1    2    0  502  0.21751085450E+01  0.23033810690E+02 -0.39527342929E+03  0.39594996078E+03  0.25500000000E-02 0.  1.
         -2    1    1    2  502    0 -0.21751085450E+01 -0.23033810690E+02 -0.94474013836E+03  0.94502339472E+03  0.25500000000E-02 0.  1.
<mgrwt>
<rscale>  0 0.50726509E+02</rscale>
<asrwt>0</asrwt>
<pdfrwt beam="2">  1        2 0.20622677E+00 0.50726509E+02</pdfrwt>
<pdfrwt beam="1">  1       -2 0.73830908E-04 0.50726509E+02</pdfrwt>
<totfact> 0.10923147E+06</totfact>
</mgrwt>
</event>
<event>
 4    1  0.4696545E-002  0.9651856E+02  0.7818608E-02  0.1287792E+00
         -2   -1    0    0  501    0 -0.00000000000E+00  0.00000000000E+00  0.21147564486E+01  0.21147579860E+01  0.25500000000E-02 0.  1.
          2   -1    0    0    0  501  0.00000000000E+00 -0.00000000000E+00 -0.11012886482E+04  0.11012886482E+04  0.25500000000E-02 0.  1.
          2    1    1    2    0  502  0.23261683674E+02  0.22480012410E+02 -0.95899122723E+03  0.95953667507E+03  0.25500000000E-02 0.  1.
         -2    1    1    2  502    0 -0.23261683674E+02 -0.22480012410E+02 -0.14018266452E+03  0.14386673113E+03  0.25500000000E-02 0.  1.
<mgrwt>
<rscale>  0 0.96518560E+02</rscale>
<asrwt>0</asrwt>
<pdfrwt beam="2">  1        2 0.16942856E+00 0.96518560E+02</pdfrwt>
<pdfrwt beam="1">  1       -2 0.32534814E-03 0.96518560E+02</pdfrwt>
<totfact> 0.21526681E+05</totfact>
</mgrwt>
</event>
<event>
 4    1  0.4696545E-002  0.7036065E+02  0.7818608E-02  0.1358871E+00
          2   -1    0    0    0  501  0.00000000000E+00  0.00000000000E+00  0.12069387370E+04  0.12069387370E+04  0.25500000000E-02 0.  1.
         -2   -1    0    0  501    0 -0.00000000000E+00 -0.00000000000E+00 -0.10254483400E+01  0.10254515105E+01  0.25500000000E-02 0.  1.
          2    1    1    2    0  502 -0.30729179891E+02  0.16920860374E+02  0.55734863622E+03  0.55845152011E+03  0.25500000000E-02 0.  1.
         -2    1    1    2  502    0  0.30729179891E+02 -0.16920860374E+02  0.64856465245E+03  0.64951266842E+03  0.25500000000E-02 0.  1.
<mgrwt>
<rscale>  0 0.70360649E+02</rscale>
<asrwt>0</asrwt>
<pdfrwt beam="1">  1        2 0.18568239E+00 0.70360649E+02</pdfrwt>
<pdfrwt beam="2">  1       -2 0.15776194E-03 0.70360649E+02</pdfrwt>
<totfact> 0.48736967E+05</totfact>
</mgrwt>
</event>
<event>
 4    1  0.4696545E-002  0.4508111E+02  0.7818608E-02  0.1473836E+00
         -2   -1    0    0  501    0 -0.00000000000E+00  0.00000000000E+00  0.96945610291E+00  0.96945945659E+00  0.25500000000E-02 0.  1.
          2   -1    0    0    0  501  0.00000000000E+00 -0.00000000000E+00 -0.52408321267E+03  0.52408321268E+03  0.25500000000E-02 0.  1.
          2    1    1    2    0  502  0.18575954166E+02  0.84222029827E+01 -0.37331621284E+03  0.37387296553E+03  0.25500000000E-02 0. -1.
         -2    1    1    2  502    0 -0.18575954166E+02 -0.84222029827E+01 -0.14979754373E+03  0.15117970661E+03  0.25500000000E-02 0. -1.
<mgrwt>
<rscale>  0 0.45081107E+02</rscale>
<asrwt>0</asrwt>
<pdfrwt beam="2">  1        2 0.80627960E-01 0.45081107E+02</pdfrwt>
<pdfrwt beam="1">  1       -2 0.14914777E-03 0.45081107E+02</pdfrwt>
<totfact> 0.13142147E+06</totfact>
</mgrwt>
</event>
<event>
 4    1  0.4696545E-002  0.8619255E+02  0.7818608E-02  0.1312343E+00
         -2   -1    0    0  501    0 -0.00000000000E+00  0.00000000000E+00  0.94091269230E+01  0.94091272685E+01  0.25500000000E-02 0.  1.
          2   -1    0    0    0  501  0.00000000000E+00 -0.00000000000E+00 -0.19739228515E+03  0.19739228517E+03  0.25500000000E-02 0.  1.
          2    1    1    2    0  502 -0.21888246380E+02  0.35954566586E+02 -0.11617214295E+03  0.12356291107E+03  0.25500000000E-02 0.  1.
         -2    1    1    2  502    0  0.21888246380E+02 -0.35954566586E+02 -0.71811015279E+02  0.83238501367E+02  0.25500000000E-02 0.  1.
<mgrwt>
<rscale>  0 0.86192554E+02</rscale>
<asrwt>0</asrwt>
<pdfrwt beam="2">  1        2 0.30368041E-01 0.86192554E+02</pdfrwt>
<pdfrwt beam="1">  1       -2 0.14475582E-02 0.86192554E+02</pdfrwt>
<totfact> 0.17900575E+05</totfact>
</mgrwt>
</event>
<event>
 4    1  0.4696545E-002  0.9941616E+02  0.7818608E-02  0.1281528E+00
          2   -1    0    0    0  501  0.00000000000E+00  0.00000000000E+00  0.12757733647E+04  0.12757733647E+04  0.25500000000E-02 0. -1.
         -2   -1    0    0  501    0 -0.00000000000E+00 -0.00000000000E+00 -0.19367798939E+01  0.19367815726E+01  0.25500000000E-02 0. -1.
          2    1    1    2    0  502  0.46212192377E+02 -0.18285285264E+02  0.62422855221E+03  0.62620380371E+03  0.25500000000E-02 0.  1.
         -2    1    1    2  502    0 -0.46212192377E+02  0.18285285264E+02  0.64960803261E+03  0.65150634257E+03  0.25500000000E-02 0.  1.
<mgrwt>
<rscale>  0 0.99416161E+02</rscale>
<asrwt>0</asrwt>
<pdfrwt beam="1">  1        2 0.19627308E+00 0.99416161E+02</pdfrwt>
<pdfrwt beam="2">  1       -2 0.29796587E-03 0.99416161E+02</pdfrwt>
<totfact> 0.19613427E+05</totfact>
</mgrwt>
</event>
<event>
 4    1  0.4696545E-002  0.8557750E+02  0.7818608E-02  0.1313929E+00
         -2   -1    0    0  501    0 -0.00000000000E+00  0.00000000000E+00  0.14335776732E+01  0.14335799411E+01  0.25500000000E-02 0.  1.
          2   -1    0    0    0  501  0.00000000000E+00 -0.00000000000E+00 -0.12771373885E+04  0.12771373885E+04  0.25500000000E-02 0.  1.
          2    1    1    2    0  502  0.24438611592E+02  0.34375763799E+02 -0.74552538980E+03  0.74671751401E+03  0.25500000000E-02 0.  1.
         -2    1    1    2  502    0 -0.24438611592E+02 -0.34375763799E+02 -0.53017842099E+03  0.53185345441E+03  0.25500000000E-02 0.  1.
<mgrwt>
<rscale>  0 0.85577499E+02</rscale>
<asrwt>0</asrwt>
<pdfrwt beam="2">  1        2 0.19648177E+00 0.85577499E+02</pdfrwt>
<pdfrwt beam="1">  1       -2 0.22055161E-03 0.85577499E+02</pdfrwt>
<totfact> 0.29112436E+05</totfact>
</mgrwt>
</event>
<event>
 4    1  0.4696545E-002  0.4698470E+02  0.7818608E-02  0.1462319E+00
          2   -1    0    0    0  501  0.00000000000E+00  0.00000000000E+00  0.13350522736E+04  0.13350522736E+04  0.25500000000E-02 0.  1.
         -2   -1    0    0  501    0 -0.00000000000E+00 -0.00000000000E+00 -0.41338101543E+00  0.41338888038E+00  0.25500000000E-02 0.  1.
          2    1    1    2    0  502 -0.12425167874E+01 -0.23389236747E+02  0.61576194235E+03  0.61620724590E+03  0.25500000000E-02 0.  1.
         -2    1    1    2  502    0  0.12425167874E+01  0.23389236747E+02  0.71887695020E+03  0.71925841655E+03  0.25500000000E-02 0.  1.
<mgrwt>
<rscale>  0 0.46984700E+02</rscale>
<asrwt>0</asrwt>
<pdfrwt beam="1">  1        2 0.20539509E+00 0.46984700E+02</pdfrwt>
<pdfrwt beam="2">  1       -2 0.63596933E-04 0.46984700E+02</pdfrwt>
<totfact> 0.13208274E+06</totfact>
</mgrwt>
</event>
<event>
 4    1  0.4696545E-002  0.6097549E+02  0.7818608E-02  0.1393783E+00
         -2   -1    0    0  501    0 -0.00000000000E+00  0.00000000000E+00  0.17241834799E+01  0.17241853656E+01  0.25500000000E-02 0.  1.
          2   -1    0    0    0  501  0.00000000000E+00 -0.00000000000E+00 -0.53909703200E+03  0.53909703201E+03  0.25500000000E-02 0.  1.
          2    1    1    2    0  502 -0.16490885250E+02 -0.13004212134E+02 -0.72664012275E+02  0.75638069224E+02  0.25500000000E-02 0. -1.
         -2    1    1    2  502    0  0.16490885250E+02  0.13004212134E+02 -0.46470883624E+03  0.46518314815E+03  0.25500000000E-02 0. -1.
<mgrwt>
<rscale>  0 0.60975494E+02</rscale>
<asrwt>0</asrwt>
<pdfrwt beam="2">  1        2 0.82937870E-01 0.60975494E+02</pdfrwt>
<pdfrwt beam="1">  1       -2 0.26525957E-03 0.60975494E+02</pdfrwt>
<totfact> 0.62530687E+05</totfact>
</mgrwt>
</event>
<event>
 4    1  0.4696545E-002  0.5724582E+02  0.7818608E-02  0.1409767E+00
          2   -1    0    0    0  501  0.00000000000E+00  0.00000000000E+00  0.83284855672E+03  0.83284855673E+03  0.25500000000E-02 0.  1.
         -2   -1    0    0  501    0 -0.00000000000E+00 -0.00000000000E+00 -0.98369571865E+00  0.98369902378E+00  0.25500000000E-02 0.  1.
          2    1    1    2    0  502  0.18423633136E+02 -0.18772634925E+02  0.25150706837E+03  0.25287872098E+03  0.25500000000E-02 0.  1.
         -2    1    1    2  502    0 -0.18423633136E+02  0.18772634925E+02  0.58035779264E+03  0.58095353477E+03  0.25500000000E-02 0.  1.
<mgrwt>
<rscale>  0 0.57245819E+02</rscale>
<asrwt>0</asrwt>
<pdfrwt beam="1">  1        2 0.12813109E+00 0.57245819E+02</pdfrwt>
<pdfrwt beam="2">  1       -2 0.15133742E-03 0.57245819E+02</pdfrwt>
<totfact> 0.81210348E+05</totfact>
</mgrwt>
</event>
<event>
 4    1  0.4696545E-002  0.1860147E+03  0.7818608E-02  0.1162106E+00
          2   -1    0    0    0  501  0.00000000000E+00  0.00000000000E+00  0.15043789750E+04  0.15043789750E+04  0.25500000000E-02 0. -1.
         -2   -1    0    0  501    0 -0.00000000000E+00 -0.00000000000E+00 -0.57501243019E+01  0.57501248674E+01  0.25500000000E-02 0. -1.
          2    1    1    2    0  502 -0.52264139015E+02 -0.24879312831E+02  0.13403293591E+04  0.13415786639E+04  0.25500000000E-02 0. -1.
         -2    1    1    2  502    0  0.52264139015E+02  0.24879312831E+02  0.15829949157E+03  0.16855043598E+03  0.25500000000E-02 0. -1.
<mgrwt>
<rscale>  0 0.18601469E+03</rscale>
<asrwt>0</asrwt>
<pdfrwt beam="1">  1        2 0.23144324E+00 0.18601469E+03</pdfrwt>
<pdfrwt beam="2">  1       -2 0.88463333E-03 0.18601469E+03</pdfrwt>
<totfact> 0.33792171E+04</totfact>
</mgrwt>
</event>
<event>
 4    1  0.4696545E-002  0.4900178E+02  0.7818608E-02  0.1450801E+00
          2   -1    0    0    0  501  0.00000000000E+00  0.00000000000E+00  0.42363124141E+03  0.42363124141E+03  0.25500000000E-02 0.  1.
         -2   -1    0    0  501    0 -0.00000000000E+00 -0.00000000000E+00 -0.14170179288E+01  0.14170202233E+01  0.25500000000E-02 0.  1.
          2    1    1    2    0  502  0.34969561077E+01  0.20733308207E+02  0.32020654072E+03  0.32089613195E+03  0.25500000000E-02 0.  1.
         -2    1    1    2  502    0 -0.34969561077E+01 -0.20733308207E+02  0.10200768275E+03  0.10415212969E+03  0.25500000000E-02 0.  1.
<mgrwt>
<rscale>  0 0.49001778E+02</rscale>
<asrwt>0</asrwt>
<pdfrwt beam="1">  1        2 0.65174051E-01 0.49001778E+02</pdfrwt>
<pdfrwt beam="2">  1       -2 0.21800289E-03 0.49001778E+02</pdfrwt>
<totfact> 0.10010542E+06</totfact>
</mgrwt>
</event>
<event>
 4    1  0.4696545E-002  0.7980106E+02  0.7818608E-02  0.1329617E+00
          2   -1    0    0    0  501  0.00000000000E+00  0.00000000000E+00  0.36560387277E+03  0.36560387278E+03  0.25500000000E-02 0.  1.
         -2   -1    0    0  501    0 -0.00000000000E+00 -0.00000000000E+00 -0.43545824901E+01  0.43545832367E+01  0.25500000000E-02 0.  1.
          2    1    1    2    0  502 -0.57114383239E+01  0.39478702518E+02  0.18493357979E+03  0.18918672634E+03  0.25500000000E-02 0.  1.
         -2    1    1    2  502    0  0.57114383239E+01 -0.39478702518E+02  0.17631571048E+03  0.18077172968E+03  0.25500000000E-02 0.  1.
<mgrwt>
<rscale>  0 0.79801062E+02</rscale>
<asrwt>0</asrwt>
<pdfrwt beam="1">  1        2 0.56246739E-01 0.79801062E+02</pdfrwt>
<pdfrwt beam="2">  1       -2 0.66993595E-03 0.79801062E+02</pdfrwt>
<totfact> 0.27468861E+05</totfact>
</mgrwt>
</event>
<event>
 4    1  0.4696545E-002  0.4820303E+02  0.7818608E-02  0.1455282E+00
          2   -1    0    0    0  501  0.00000000000E+00  0.00000000000E+00  0.19954724020E+02  0.19954724182E+02  0.25500000000E-02 0.  1.
         -2   -1    0    0  501    0 -0.00000000000E+00 -0.00000000000E+00 -0.29110045740E+02  0.29110045851E+02  0.25500000000E-02 0.  1.
          2    1    1    2    0  502 -0.48723746367E+01  0.19583711864E+02  0.88344379608E+01  0.22029732308E+02  0.25500000000E-02 0. -1.
         -2    1    1    2  502    0  0.48723746367E+01 -0.19583711864E+02 -0.17989759681E+02  0.27035037726E+02  0.25500000000E-02 0. -1.
<mgrwt>
<rscale>  0 0.48203026E+02</rscale>
<asrwt>0</asrwt>
<pdfrwt beam="1">  1        2 0.30699576E-02 0.48203026E+02</pdfrwt>
<pdfrwt beam="2">  1       -2 0.44784686E-02 0.48203026E+02</pdfrwt>
<totfact> 0.48513396E+05</totfact>
</mgrwt>
</event>
<event>
 4    1  0.4696545E-002  0.4392618E+02  0.7818608E-02  0.1481159E+00
         -2   -1    0    0  501    0 -0.00000000000E+00  0.00000000000E+00  0.51820116316E+00  0.51820743723E+00  0.25500000000E-02 0. -1.
          2   -1    0    0    0  501  0.00000000000E+00 -0.00000000000E+00 -0.93086302723E+03  0.93086302723E+03  0.25500000000E-02 0. -1.
          2    1    1    2    0  502 -0.21143545537E+02  0.59142646571E+01 -0.47770169871E+03  0.47820596086E+03  0.25500000000E-02 0. -1.
         -2    1    1    2  502    0  0.21143545537E+02 -0.59142646571E+01 -0.45264312736E+03  0.45317527381E+03  0.25500000000E-02 0. -1.
<mgrwt>
<rscale>  0 0.43926176E+02</rscale>
<asrwt>0</asrwt>
<pdfrwt beam="2">  1        2 0.14320836E+00 0.43926176E+02</pdfrwt>
<pdfrwt beam="1">  1       -2 0.79724484E-04 0.43926176E+02</pdfrwt>
<totfact> 0.15822339E+06</totfact>
</mgrwt>
</event>
<event>
 4    1  0.4696545E-002  0.7604134E+02  0.7818608E-02  0.1340676E+00
         -2   -1    0    0  501    0 -0.00000000000E+00  0.00000000000E+00  0.40824561668E+01  0.40824569632E+01  0.25500000000E-02 0.  1.
          2   -1    0    0    0  501  0.00000000000E+00 -0.00000000000E+00 -0.35409345683E+03  0.35409345684E+03  0.25500000000E-02 0.  1.
          2    1    1    2    0  502 -0.35555757058E+02  0.10865266946E+02 -0.13752834906E+03  0.14246512797E+03  0.25500000000E-02 0. -1.
         -2    1    1    2  502    0  0.35555757058E+02 -0.10865266946E+02 -0.21248265160E+03  0.21571078583E+03  0.25500000000E-02 0. -1.
<mgrwt>
<rscale>  0 0.76041335E+02</rscale>
<asrwt>0</asrwt>
<pdfrwt beam="2">  1        2 0.54475892E-01 0.76041335E+02</pdfrwt>
<pdfrwt beam="1">  1       -2 0.62807052E-03 0.76041335E+02</pdfrwt>
<totfact> 0.30808718E+05</totfact>
</mgrwt>
</event>
<event>
 4    1  0.4696545E-002  0.7468447E+02  0.7818608E-02  0.1344851E+00
         -2   -1    0    0  501    0 -0.00000000000E+00  0.00000000000E+00  0.43164537092E+01  0.43164544624E+01  0.25500000000E-02 0. -1.
          2   -1    0    0    0  501  0.00000000000E+00 -0.00000000000E+00 -0.32305275755E+03  0.32305275756E+03  0.25500000000E-02 0. -1.
          2    1    1    2    0  502  0.28719842214E+02 -0.15468171248E+02 -0.79698325520E+02  0.86115717240E+02  0.25500000000E-02 0. -1.
         -2    1    1    2  502    0 -0.28719842214E+02  0.15468171248E+02 -0.23903797832E+03  0.24125349478E+03  0.25500000000E-02 0. -1.
<mgrwt>
<rscale>  0 0.74684467E+02</rscale>
<asrwt>0</asrwt>
<pdfrwt beam="2">  1        2 0.49700406E-01 0.74684467E+02</pdfrwt>
<pdfrwt beam="1">  1       -2 0.66407011E-03 0.74684467E+02</pdfrwt>
<totfact> 0.31240578E+05</totfact>
</mgrwt>
</event>
<event>
 4    1  0.4696545E-002  0.5501761E+02  0.7818608E-02  0.1420016E+00
          2   -1    0    0    0  501  0.00000000000E+00  0.00000000000E+00  0.12860031828E+03  0.12860031831E+03  0.25500000000E-02 0.  1.
         -2   -1    0    0  501    0 -0.00000000000E+00 -0.00000000000E+00 -0.58843901627E+01  0.58843907152E+01  0.25500000000E-02 0.  1.
          2    1    1    2    0  502 -0.88998369916E+01 -0.21783959653E+02  0.96184053317E+02  0.99020806478E+02  0.25500000000E-02 0.  1.
         -2    1    1    2  502    0  0.88998369916E+01  0.21783959653E+02  0.26531874804E+02  0.35463902546E+02  0.25500000000E-02 0.  1.
<mgrwt>
<rscale>  0 0.55017615E+02</rscale>
<asrwt>0</asrwt>
<pdfrwt beam="1">  1        2 0.19784663E-01 0.55017615E+02</pdfrwt>
<pdfrwt beam="2">  1       -2 0.90529092E-03 0.55017615E+02</pdfrwt>
<totfact> 0.50332455E+05</totfact>
</mgrwt>
</event>
<event>
 4    1  0.4696545E-002  0.6520827E+02  0.7818608E-02  0.1377190E+00
          2   -1    0    0    0  501  0.00000000000E+00  0.00000000000E+00  0.37388335159E+03  0.37388335160E+03  0.25500000000E-02 0.  1.
         -2   -1    0    0  501    0 -0.00000000000E+00 -0.00000000000E+00 -0.28432113071E+01  0.28432124506E+01  0.25500000000E-02 0.  1.
          2    1    1    2    0  502 -0.18334584841E+02  0.20633567019E+02  0.28577355974E+03  0.28710351538E+03  0.25500000000E-02 0.  1.
         -2    1    1    2  502    0  0.18334584841E+02 -0.20633567019E+02  0.85266580543E+02  0.89623048672E+02  0.25500000000E-02 0.  1.
<mgrwt>
<rscale>  0 0.65208269E+02</rscale>
<asrwt>0</asrwt>
<pdfrwt beam="1">  1        2 0.57520529E-01 0.65208269E+02</pdfrwt>
<pdfrwt beam="2">  1       -2 0.43741711E-03 0.65208269E+02</pdfrwt>
<totfact> 0.46720982E+05</totfact>
</mgrwt>
</event>
<event>
 4    1  0.4696545E-002  0.4940370E+02  0.7818608E-02  0.1448585E+00
         -2   -1    0    0  501    0 -0.00000000000E+00  0.00000000000E+00  0.31571626701E+00  0.31572656486E+00  0.25500000000E-02 0. -1.
          2   -1    0    0    0  501  0.00000000000E+00 -0.00000000000E+00 -0.19326576436E+04  0.19326576436E+04  0.25500000000E-02 0. -1.
          2    1    1    2    0  502 -0.16776438892E+02 -0.16001540729E+02 -0.12997382098E+04  0.12999449650E+04  0.25500000000E-02 0.  1.
         -2    1    1    2  502    0  0.16776438892E+02  0.16001540729E+02 -0.63260371757E+03  0.63302840512E+03  0.25500000000E-02 0.  1.
<mgrwt>
<rscale>  0 0.49403701E+02</rscale>
<asrwt>0</asrwt>
<pdfrwt beam="2">  1        2 0.29732247E+00 0.49403701E+02</pdfrwt>
<pdfrwt beam="1">  1       -2 0.48574073E-04 0.49403701E+02</pdfrwt>
<totfact> 0.97683825E+05</totfact>
</mgrwt>
</event>
<event>
 4    1  0.4696545E-002  0.9633759E+02  0.7818608E-02  0.1288192E+00
          2   -1    0    0    0  501  0.00000000000E+00  0.00000000000E+00  0.34527783500E+03  0.34527783501E+03  0.25500000000E-02 0. -1.
         -2   -1    0    0  501    0 -0.00000000000E+00 -0.00000000000E+00 -0.67199008809E+01  0.67199013647E+01  0.25500000000E-02 0. -1.
          2    1    1    2    0  502  0.25098913962E+02  0.33917767702E+02  0.25417465813E+03  0.25765311426E+03  0.25500000000E-02 0. -1.
         -2    1    1    2  502    0 -0.25098913962E+02 -0.33917767702E+02  0.84383275993E+02  0.94344622114E+02  0.25500000000E-02 0. -1.
<mgrwt>
<rscale>  0 0.96337592E+02</rscale>
<asrwt>0</asrwt>
<pdfrwt beam="1">  1        2 0.53119655E-01 0.96337592E+02</pdfrwt>
<pdfrwt beam="2">  1       -2 0.10338312E-02 0.96337592E+02</pdfrwt>
<totfact> 0.16337457E+05</totfact>
</mgrwt>
</event>
<event>
 4    1  0.4696545E-002  0.5024520E+02  0.7818608E-02  0.1444023E+00
         -2   -1    0    0  501    0 -0.00000000000E+00  0.00000000000E+00  0.63132016989E+00  0.63132531979E+00  0.25500000000E-02 0.  1.
          2   -1    0    0    0  501  0.00000000000E+00 -0.00000000000E+00 -0.99971868634E+03  0.99971868634E+03  0.25500000000E-02 0.  1.
          2    1    1    2    0  502 -0.12445403177E+02  0.20713360371E+02 -0.63634546845E+03  0.63680411948E+03  0.25500000000E-02 0.  1.
         -2    1    1    2  502    0  0.12445403177E+02 -0.20713360371E+02 -0.36274189771E+03  0.36354589218E+03  0.25500000000E-02 0.  1.
<mgrwt>
<rscale>  0 0.50245205E+02</rscale>
<asrwt>0</asrwt>
<pdfrwt beam="2">  1        2 0.15380161E+00 0.50245205E+02</pdfrwt>
<pdfrwt beam="1">  1       -2 0.97127376E-04 0.50245205E+02</pdfrwt>
<totfact> 0.11438736E+06</totfact>
</mgrwt>
</event>
<event>
 4    1  0.4696545E-002  0.4814070E+02  0.7818608E-02  0.1455636E+00
          2   -1    0    0    0  501  0.00000000000E+00  0.00000000000E+00  0.10246312015E+04  0.10246312015E+04  0.25500000000E-02 0. -1.
         -2   -1    0    0  501    0 -0.00000000000E+00 -0.00000000000E+00 -0.56545114544E+00  0.56545689525E+00  0.25500000000E-02 0. -1.
          2    1    1    2    0  502  0.69631553691E+01  0.19951623686E+02  0.26659520811E+03  0.26743140768E+03  0.25500000000E-02 0. -1.
         -2    1    1    2  502    0 -0.69631553691E+01 -0.19951623686E+02  0.75747054225E+03  0.75776525072E+03  0.25500000000E-02 0. -1.
<mgrwt>
<rscale>  0 0.48140704E+02</rscale>
<asrwt>0</asrwt>
<pdfrwt beam="1">  1        2 0.15763505E+00 0.48140704E+02</pdfrwt>
<pdfrwt beam="2">  1       -2 0.86993212E-04 0.48140704E+02</pdfrwt>
<totfact> 0.12721198E+06</totfact>
</mgrwt>
</event>
<event>
 4    1  0.4696545E-002  0.6462363E+02  0.7818608E-02  0.1379393E+00
          2   -1    0    0    0  501  0.00000000000E+00  0.00000000000E+00  0.13647103287E+03  0.13647103289E+03  0.25500000000E-02 0.  1.
         -2   -1    0    0  501    0 -0.00000000000E+00 -0.00000000000E+00 -0.76503652808E+01  0.76503657057E+01  0.25500000000E-02 0.  1.
          2    1    1    2    0  502  0.31550041296E+02 -0.50746435688E+01  0.53739004837E+02  0.62522298107E+02  0.25500000000E-02 0. -1.
         -2    1    1    2  502    0 -0.31550041296E+02  0.50746435688E+01  0.75081662750E+02  0.81599100491E+02  0.25500000000E-02 0. -1.
<mgrwt>
<rscale>  0 0.64623627E+02</rscale>
<asrwt>0</asrwt>
<pdfrwt beam="1">  1        2 0.20995544E-01 0.64623627E+02</pdfrwt>
<pdfrwt beam="2">  1       -2 0.11769793E-02 0.64623627E+02</pdfrwt>
<totfact> 0.33845099E+05</totfact>
</mgrwt>
</event>
<event>
 4    1  0.4696545E-002  0.4242380E+02  0.7818608E-02  0.1491096E+00
         -2   -1    0    0  501    0 -0.00000000000E+00  0.00000000000E+00  0.38604736068E+00  0.38605578249E+00  0.25500000000E-02 0. -1.
          2   -1    0    0    0  501  0.00000000000E+00 -0.00000000000E+00 -0.11655041093E+04  0.11655041093E+04  0.25500000000E-02 0. -1.
          2    1    1    2    0  502 -0.16850275564E+02  0.12225327306E+02 -0.47074323380E+03  0.47120333466E+03  0.25500000000E-02 0.  1.
         -2    1    1    2  502    0  0.16850275564E+02 -0.12225327306E+02 -0.69437482818E+03  0.69468683047E+03  0.25500000000E-02 0.  1.
<mgrwt>
<rscale>  0 0.42423800E+02</rscale>
<asrwt>0</asrwt>
<pdfrwt beam="2">  1        2 0.17930551E+00 0.42423800E+02</pdfrwt>
<pdfrwt beam="1">  1       -2 0.59393483E-04 0.42423800E+02</pdfrwt>
<totfact> 0.17269644E+06</totfact>
</mgrwt>
</event>
<event>
 4    1  0.4696545E-002  0.4929496E+02  0.7818608E-02  0.1449182E+00
         -2   -1    0    0  501    0 -0.00000000000E+00  0.00000000000E+00  0.68673256376E+00  0.68673729812E+00  0.25500000000E-02 0.  1.
          2   -1    0    0    0  501  0.00000000000E+00 -0.00000000000E+00 -0.88461820846E+03  0.88461820847E+03  0.25500000000E-02 0.  1.
          2    1    1    2    0  502 -0.18955100168E+02  0.15211528444E+02 -0.36832849695E+03  0.36912947335E+03  0.25500000000E-02 0.  1.
         -2    1    1    2  502    0  0.18955100168E+02 -0.15211528444E+02 -0.51560297895E+03  0.51617547242E+03  0.25500000000E-02 0.  1.
<mgrwt>
<rscale>  0 0.49294958E+02</rscale>
<asrwt>0</asrwt>
<pdfrwt beam="2">  1        2 0.13609420E+00 0.49294958E+02</pdfrwt>
<pdfrwt beam="1">  1       -2 0.10565224E-03 0.49294958E+02</pdfrwt>
<totfact> 0.11870490E+06</totfact>
</mgrwt>
</event>
<event>
 4    1  0.4696545E-002  0.8372775E+02  0.7818608E-02  0.1318794E+00
         -2   -1    0    0  501    0 -0.00000000000E+00  0.00000000000E+00  0.25145965844E+01  0.25145978773E+01  0.25500000000E-02 0.  1.
          2   -1    0    0    0  501  0.00000000000E+00 -0.00000000000E+00 -0.69696409778E+03  0.69696409778E+03  0.25500000000E-02 0.  1.
          2    1    1    2    0  502 -0.57954152744E+01  0.32984874766E+02 -0.55707915964E+03  0.55808492088E+03  0.25500000000E-02 0.  1.
         -2    1    1    2  502    0  0.57954152744E+01 -0.32984874766E+02 -0.13737034155E+03  0.14139377478E+03  0.25500000000E-02 0.  1.
<mgrwt>
<rscale>  0 0.83727749E+02</rscale>
<asrwt>0</asrwt>
<pdfrwt beam="2">  1        2 0.10722509E+00 0.83727749E+02</pdfrwt>
<pdfrwt beam="1">  1       -2 0.38686167E-03 0.83727749E+02</pdfrwt>
<totfact> 0.29632558E+05</totfact>
</mgrwt>
</event>
<event>
 4    1  0.4696545E-002  0.6450530E+02  0.7818608E-02  0.1379842E+00
         -2   -1    0    0  501    0 -0.00000000000E+00  0.00000000000E+00  0.42060542717E+01  0.42060550447E+01  0.25500000000E-02 0.  1.
          2   -1    0    0    0  501  0.00000000000E+00 -0.00000000000E+00 -0.24731810530E+03  0.24731810531E+03  0.25500000000E-02 0.  1.
          2    1    1    2    0  502  0.34108715517E+01 -0.30827588863E+02 -0.15605069298E+03  0.15910308943E+03  0.25500000000E-02 0.  1.
         -2    1    1    2  502    0 -0.34108715517E+01  0.30827588863E+02 -0.87061358047E+02  0.92421070927E+02  0.25500000000E-02 0.  1.
<mgrwt>
<rscale>  0 0.64505301E+02</rscale>
<asrwt>0</asrwt>
<pdfrwt beam="2">  1        2 0.38048928E-01 0.64505301E+02</pdfrwt>
<pdfrwt beam="1">  1       -2 0.64708553E-03 0.64505301E+02</pdfrwt>
<totfact> 0.41474594E+05</totfact>
</mgrwt>
</event>
<event>
 4    1  0.4696545E-002  0.5894099E+02  0.7818608E-02  0.1402330E+00
         -2   -1    0    0  501    0 -0.00000000000E+00  0.00000000000E+00  0.92784708604E+01  0.92784712108E+01  0.25500000000E-02 0. -1.
          2   -1    0    0    0  501  0.00000000000E+00 -0.00000000000E+00 -0.93604856965E+02  0.93604856999E+02  0.25500000000E-02 0. -1.
          2    1    1    2    0  502 -0.24799847273E+02 -0.15845557973E+02 -0.44865001729E+02  0.53656150802E+02  0.25500000000E-02 0. -1.
         -2    1    1    2  502    0  0.24799847273E+02  0.15845557973E+02 -0.39461384375E+02  0.49227177408E+02  0.25500000000E-02 0. -1.
<mgrwt>
<rscale>  0 0.58940986E+02</rscale>
<asrwt>0</asrwt>
<pdfrwt beam="2">  1        2 0.14400747E-01 0.58940986E+02</pdfrwt>
<pdfrwt beam="1">  1       -2 0.14274572E-02 0.58940986E+02</pdfrwt>
<totfact> 0.38606006E+05</totfact>
</mgrwt>
</event>
<event>
 4    1  0.4696545E-002  0.7403812E+02  0.7818608E-02  0.1346876E+00
          2   -1    0    0    0  501  0.00000000000E+00  0.00000000000E+00  0.14573444891E+04  0.14573444891E+04  0.25500000000E-02 0.  1.
         -2   -1    0    0  501    0 -0.00000000000E+00 -0.00000000000E+00 -0.94034615994E+00  0.94034961744E+00  0.25500000000E-02 0.  1.
          2    1    1    2    0  502 -0.85553555138E+01 -0.35502896521E+02  0.84762311869E+03  0.84840945370E+03  0.25500000000E-02 0.  1.
         -2    1    1    2  502    0  0.85553555138E+01  0.35502896521E+02  0.60878102420E+03  0.60987538498E+03  0.25500000000E-02 0.  1.
<mgrwt>
<rscale>  0 0.74038120E+02</rscale>
<asrwt>0</asrwt>
<pdfrwt beam="1">  1        2 0.22420727E+00 0.74038120E+02</pdfrwt>
<pdfrwt beam="2">  1       -2 0.14466863E-03 0.74038120E+02</pdfrwt>
<totfact> 0.41031788E+05</totfact>
</mgrwt>
</event>
<event>
 4    1  0.4696545E-002  0.6849705E+02  0.7818608E-02  0.1365280E+00
          2   -1    0    0    0  501  0.00000000000E+00  0.00000000000E+00  0.10219224135E+02  0.10219224453E+02  0.25500000000E-02 0.  1.
         -2   -1    0    0  501    0 -0.00000000000E+00 -0.00000000000E+00 -0.11477988757E+03  0.11477988760E+03  0.25500000000E-02 0.  1.
          2    1    1    2    0  502  0.24143593534E+02  0.24248760410E+02 -0.49670096621E+02  0.60316117207E+02  0.25500000000E-02 0.  1.
         -2    1    1    2  502    0 -0.24143593534E+02 -0.24248760410E+02 -0.54890566812E+02  0.64682994841E+02  0.25500000000E-02 0.  1.
<mgrwt>
<rscale>  0 0.68497049E+02</rscale>
<asrwt>0</asrwt>
<pdfrwt beam="1">  1        2 0.15721884E-02 0.68497049E+02</pdfrwt>
<pdfrwt beam="2">  1       -2 0.17658443E-01 0.68497049E+02</pdfrwt>
<totfact> 0.15639164E+05</totfact>
</mgrwt>
</event>
<event>
 4    1  0.4696545E-002  0.5935868E+02  0.7818608E-02  0.1400543E+00
         -2   -1    0    0  501    0 -0.00000000000E+00  0.00000000000E+00  0.34649949289E+02  0.34649949383E+02  0.25500000000E-02 0. -1.
          2   -1    0    0    0  501  0.00000000000E+00 -0.00000000000E+00 -0.25421777719E+02  0.25421777847E+02  0.25500000000E-02 0. -1.
          2    1    1    2    0  502  0.26969314467E+02 -0.12384198872E+02  0.42208249242E+01  0.29975451190E+02  0.25500000000E-02 0.  1.
         -2    1    1    2  502    0 -0.26969314467E+02  0.12384198872E+02  0.50073466452E+01  0.30096276039E+02  0.25500000000E-02 0.  1.
<mgrwt>
<rscale>  0 0.59358683E+02</rscale>
<asrwt>0</asrwt>
<pdfrwt beam="2">  1        2 0.39110427E-02 0.59358683E+02</pdfrwt>
<pdfrwt beam="1">  1       -2 0.53307615E-02 0.59358683E+02</pdfrwt>
<totfact> 0.28867974E+05</totfact>
</mgrwt>
</event>
<event>
 4    1  0.4696545E-002  0.5140954E+02  0.7818608E-02  0.1437884E+00
          2   -1    0    0    0  501  0.00000000000E+00  0.00000000000E+00  0.28361989294E+03  0.28361989295E+03  0.25500000000E-02 0. -1.
         -2   -1    0    0  501    0 -0.00000000000E+00 -0.00000000000E+00 -0.23296498479E+01  0.23296512435E+01  0.25500000000E-02 0. -1.
          2    1    1    2    0  502 -0.23219196162E+02  0.84591341405E+01  0.10129594649E+03  0.10426675790E+03  0.25500000000E-02 0. -1.
         -2    1    1    2  502    0  0.23219196162E+02 -0.84591341405E+01  0.17999429660E+03  0.18168278629E+03  0.25500000000E-02 0. -1.
<mgrwt>
<rscale>  0 0.51409542E+02</rscale>
<asrwt>0</asrwt>
<pdfrwt beam="1">  1        2 0.43633856E-01 0.51409542E+02</pdfrwt>
<pdfrwt beam="2">  1       -2 0.35840757E-03 0.51409542E+02</pdfrwt>
<totfact> 0.77395160E+05</totfact>
</mgrwt>
</event>
<event>
 4    1  0.4696545E-002  0.4812889E+02  0.7818608E-02  0.1455703E+00
         -2   -1    0    0  501    0 -0.00000000000E+00  0.00000000000E+00  0.92573770645E+00  0.92574121851E+00  0.25500000000E-02 0. -1.
          2   -1    0    0    0  501  0.00000000000E+00 -0.00000000000E+00 -0.62555140113E+03  0.62555140113E+03  0.25500000000E-02 0. -1.
          2    1    1    2    0  502 -0.39944472836E+01  0.23660785887E+02 -0.28863390858E+03  0.28962962830E+03  0.25500000000E-02 0.  1.
         -2    1    1    2  502    0  0.39944472836E+01 -0.23660785887E+02 -0.33599175484E+03  0.33684751405E+03  0.25500000000E-02 0.  1.
<mgrwt>
<rscale>  0 0.48128894E+02</rscale>
<asrwt>0</asrwt>
<pdfrwt beam="2">  1        2 0.96238339E-01 0.48128894E+02</pdfrwt>
<pdfrwt beam="1">  1       -2 0.14242196E-03 0.48128894E+02</pdfrwt>
<totfact> 0.11764395E+06</totfact>
</mgrwt>
</event>
<event>
 4    1  0.4696545E-002  0.4482547E+02  0.7818608E-02  0.1475434E+00
          2   -1    0    0    0  501  0.00000000000E+00  0.00000000000E+00  0.19276043690E+02  0.19276043859E+02  0.25500000000E-02 0.  1.
         -2   -1    0    0  501    0 -0.00000000000E+00 -0.00000000000E+00 -0.26059843448E+02  0.26059843572E+02  0.25500000000E-02 0.  1.
          2    1    1    2    0  502 -0.21440021760E+02 -0.44155418129E+01 -0.82590917817E+01  0.23396242137E+02  0.25500000000E-02 0. -1.
         -2    1    1    2  502    0  0.21440021760E+02  0.44155418129E+01  0.14752920241E+01  0.21939645294E+02  0.25500000000E-02 0. -1.
<mgrwt>
<rscale>  0 0.44825470E+02</rscale>
<asrwt>0</asrwt>
<pdfrwt beam="1">  1        2 0.29655452E-02 0.44825470E+02</pdfrwt>
<pdfrwt beam="2">  1       -2 0.40092067E-02 0.44825470E+02</pdfrwt>
<totfact> 0.58436870E+05</totfact>
</mgrwt>
</event>
<event>
 4    1  0.4696545E-002  0.4322906E+02  0.7818608E-02  0.1485710E+00
          2   -1    0    0    0  501  0.00000000000E+00  0.00000000000E+00  0.82719652350E+03  0.82719652350E+03  0.25500000000E-02 0.  1.
         -2   -1    0    0  501    0 -0.00000000000E+00 -0.00000000000E+00 -0.56478166594E+00  0.56478742256E+00  0.25500000000E-02 0.  1.
          2    1    1    2    0  502  0.51155630686E+01  0.20754085875E+02  0.35190174085E+03  0.35255033156E+03  0.25500000000E-02 0. -1.
         -2    1    1    2  502    0 -0.51155630686E+01 -0.20754085875E+02  0.47473000098E+03  0.47521097936E+03  0.25500000000E-02 0. -1.
<mgrwt>
<rscale>  0 0.43229056E+02</rscale>
<asrwt>0</asrwt>
<pdfrwt beam="1">  1        2 0.12726116E+00 0.43229056E+02</pdfrwt>
<pdfrwt beam="2">  1       -2 0.86889825E-04 0.43229056E+02</pdfrwt>
<totfact> 0.16212188E+06</totfact>
</mgrwt>
</event>
<event>
 4    1  0.4696545E-002  0.9460302E+02  0.7818608E-02  0.1292073E+00
          2   -1    0    0    0  501  0.00000000000E+00  0.00000000000E+00  0.74446101854E+02  0.74446101898E+02  0.25500000000E-02 0.  1.
         -2   -1    0    0  501    0 -0.00000000000E+00 -0.00000000000E+00 -0.30054398457E+02  0.30054398565E+02  0.25500000000E-02 0.  1.
          2    1    1    2    0  502  0.34255906544E+02  0.21476898286E+02 -0.49227340555E+01  0.40730303341E+02  0.25500000000E-02 0. -1.
         -2    1    1    2  502    0 -0.34255906544E+02 -0.21476898286E+02  0.49314437453E+02  0.63770197122E+02  0.25500000000E-02 0. -1.
<mgrwt>
<rscale>  0 0.94603019E+02</rscale>
<asrwt>0</asrwt>
<pdfrwt beam="1">  1        2 0.11453246E-01 0.94603019E+02</pdfrwt>
<pdfrwt beam="2">  1       -2 0.46237537E-02 0.94603019E+02</pdfrwt>
<totfact> 0.10149279E+05</totfact>
</mgrwt>
</event>
<event>
 4    1  0.4696545E-002  0.1333523E+03  0.7818608E-02  0.1222565E+00
         -2   -1    0    0  501    0 -0.00000000000E+00  0.00000000000E+00  0.10047197429E+02  0.10047197753E+02  0.25500000000E-02 0.  1.
          2   -1    0    0    0  501  0.00000000000E+00 -0.00000000000E+00 -0.44248225654E+03  0.44248225654E+03  0.25500000000E-02 0.  1.
          2    1    1    2    0  502 -0.46538351222E+02 -0.11442745583E+02 -0.58906265186E+02  0.75938808560E+02  0.25500000000E-02 0.  1.
         -2    1    1    2  502    0  0.46538351222E+02  0.11442745583E+02 -0.37352879392E+03  0.37659064574E+03  0.25500000000E-02 0.  1.
<mgrwt>
<rscale>  0 0.13335227E+03</rscale>
<asrwt>0</asrwt>
<pdfrwt beam="2">  1        2 0.68074178E-01 0.13335227E+03</pdfrwt>
<pdfrwt beam="1">  1       -2 0.15457230E-02 0.13335227E+03</pdfrwt>
<totfact> 0.73938358E+04</totfact>
</mgrwt>
</event>
<event>
 4    1  0.4696545E-002  0.7033798E+02  0.7818608E-02  0.1358947E+00
          2   -1    0    0    0  501  0.00000000000E+00  0.00000000000E+00  0.66032179464E+02  0.66032179513E+02  0.25500000000E-02 0.  1.
         -2   -1    0    0  501    0 -0.00000000000E+00 -0.00000000000E+00 -0.18731137514E+02  0.18731137687E+02  0.25500000000E-02 0.  1.
          2    1    1    2    0  502  0.28817950915E+02 -0.13467867558E+02  0.41726814983E+02  0.52468894086E+02  0.25500000000E-02 0.  1.
         -2    1    1    2  502    0 -0.28817950915E+02  0.13467867558E+02  0.55742269673E+01  0.32294423114E+02  0.25500000000E-02 0.  1.
<mgrwt>
<rscale>  0 0.70337980E+02</rscale>
<asrwt>0</asrwt>
<pdfrwt beam="1">  1        2 0.10158797E-01 0.70337980E+02</pdfrwt>
<pdfrwt beam="2">  1       -2 0.28817134E-02 0.70337980E+02</pdfrwt>
<totfact> 0.22190500E+05</totfact>
</mgrwt>
</event>
<event>
 4    1  0.4696545E-002  0.5096690E+02  0.7818608E-02  0.1440195E+00
          2   -1    0    0    0  501  0.00000000000E+00  0.00000000000E+00  0.21925370317E+01  0.21925385146E+01  0.25500000000E-02 0. -1.
         -2   -1    0    0  501    0 -0.00000000000E+00 -0.00000000000E+00 -0.29618934197E+03  0.29618934198E+03  0.25500000000E-02 0. -1.
          2    1    1    2    0  502  0.56678856026E+01  0.20616830234E+02 -0.65829031515E+02  0.69214449451E+02  0.25500000000E-02 0. -1.
         -2    1    1    2  502    0 -0.56678856026E+01 -0.20616830234E+02 -0.22816777342E+03  0.22916743104E+03  0.25500000000E-02 0. -1.
<mgrwt>
<rscale>  0 0.50966904E+02</rscale>
<asrwt>0</asrwt>
<pdfrwt beam="1">  1        2 0.33731374E-03 0.50966904E+02</pdfrwt>
<pdfrwt beam="2">  1       -2 0.45567559E-01 0.50966904E+02</pdfrwt>
<totfact> 0.22309793E+05</totfact>
</mgrwt>
</event>
<event>
 4    1  0.4696545E-002  0.4558938E+02  0.7818608E-02  0.1470695E+00
         -2   -1    0    0  501    0 -0.00000000000E+00  0.00000000000E+00  0.10898349172E+01  0.10898379004E+01  0.25500000000E-02 0.  1.
          2   -1    0    0    0  501  0.00000000000E+00 -0.00000000000E+00 -0.47676676562E+03  0.47676676563E+03  0.25500000000E-02 0.  1.
          2    1    1    2    0  502 -0.29502582273E+01  0.22476464952E+02 -0.26286830531E+03  0.26384397178E+03  0.25500000000E-02 0.  1.
         -2    1    1    2  502    0  0.29502582273E+01 -0.22476464952E+02 -0.21280862539E+03  0.21401263175E+03  0.25500000000E-02 0.  1.
<mgrwt>
<rscale>  0 0.45589375E+02</rscale>
<asrwt>0</asrwt>
<pdfrwt beam="2">  1        2 0.73348567E-01 0.45589375E+02</pdfrwt>
<pdfrwt beam="1">  1       -2 0.16766752E-03 0.45589375E+02</pdfrwt>
<totfact> 0.12421442E+06</totfact>
</mgrwt>
</event>
<event>
 4    1  0.4696545E-002  0.4531716E+02  0.7818608E-02  0.1472371E+00
         -2   -1    0    0  501    0 -0.00000000000E+00  0.00000000000E+00  0.17018789946E+02  0.17018790137E+02  0.25500000000E-02 0.  1.
          2   -1    0    0    0  501  0.00000000000E+00 -0.00000000000E+00 -0.30167313464E+02  0.30167313572E+02  0.25500000000E-02 0.  1.
          2    1    1    2    0  502 -0.15439334334E+02  0.16443036348E+02 -0.88231222360E+01  0.24219702341E+02  0.25500000000E-02 0.  1.
         -2    1    1    2  502    0  0.15439334334E+02 -0.16443036348E+02 -0.43254012823E+01  0.22966401367E+02  0.25500000000E-02 0.  1.
<mgrwt>
<rscale>  0 0.45317157E+02</rscale>
<asrwt>0</asrwt>
<pdfrwt beam="2">  1        2 0.46411252E-02 0.45317157E+02</pdfrwt>
<pdfrwt beam="1">  1       -2 0.26182754E-02 0.45317157E+02</pdfrwt>
<totfact> 0.60643598E+05</totfact>
</mgrwt>
</event>
<event>
 4    1  0.4696545E-002  0.5957184E+02  0.7818608E-02  0.1399637E+00
          2   -1    0    0    0  501  0.00000000000E+00  0.00000000000E+00  0.84945096260E+03  0.84945096261E+03  0.25500000000E-02 0. -1.
         -2   -1    0    0  501    0 -0.00000000000E+00 -0.00000000000E+00 -0.10444390825E+01  0.10444421954E+01  0.25500000000E-02 0. -1.
          2    1    1    2    0  502 -0.27377464378E+02  0.37247272588E+01  0.58305599340E+03  0.58371027967E+03  0.25500000000E-02 0.  1.
         -2    1    1    2  502    0  0.27377464378E+02 -0.37247272588E+01  0.26535053012E+03  0.26678512513E+03  0.25500000000E-02 0.  1.
<mgrwt>
<rscale>  0 0.59571843E+02</rscale>
<asrwt>0</asrwt>
<pdfrwt beam="1">  1        2 0.13068456E+00 0.59571843E+02</pdfrwt>
<pdfrwt beam="2">  1       -2 0.16068343E-03 0.59571843E+02</pdfrwt>
<totfact> 0.73689844E+05</totfact>
</mgrwt>
</event>
<event>
 4    1  0.4696545E-002  0.4466092E+02  0.7818608E-02  0.1476470E+00
          2   -1    0    0    0  501  0.00000000000E+00  0.00000000000E+00  0.26113133843E+02  0.26113133967E+02  0.25500000000E-02 0. -1.
         -2   -1    0    0  501    0 -0.00000000000E+00 -0.00000000000E+00 -0.19095734222E+02  0.19095734392E+02  0.25500000000E-02 0. -1.
          2    1    1    2    0  502 -0.21126510327E+02  0.72330598461E+01  0.34544664754E+01  0.22596015987E+02  0.25500000000E-02 0. -1.
         -2    1    1    2  502    0  0.21126510327E+02 -0.72330598461E+01  0.35629331455E+01  0.22612852373E+02  0.25500000000E-02 0. -1.
<mgrwt>
<rscale>  0 0.44660921E+02</rscale>
<asrwt>0</asrwt>
<pdfrwt beam="1">  1        2 0.40174052E-02 0.44660921E+02</pdfrwt>
<pdfrwt beam="2">  1       -2 0.29378053E-02 0.44660921E+02</pdfrwt>
<totfact> 0.61629115E+05</totfact>
</mgrwt>
</event>
<event>
 4    1  0.4696545E-002  0.4879386E+02  0.7818608E-02  0.1451958E+00
         -2   -1    0    0  501    0 -0.00000000000E+00  0.00000000000E+00  0.85464104349E+00  0.85464484771E+00  0.25500000000E-02 0. -1.
          2   -1    0    0    0  501  0.00000000000E+00 -0.00000000000E+00 -0.69644297632E+03  0.69644297632E+03  0.25500000000E-02 0. -1.
          2    1    1    2    0  502 -0.84022936325E+01  0.19650717496E+02 -0.17963655783E+03  0.18090340559E+03  0.25500000000E-02 0. -1.
         -2    1    1    2  502    0  0.84022936325E+01 -0.19650717496E+02 -0.51595177744E+03  0.51639421558E+03  0.25500000000E-02 0. -1.
<mgrwt>
<rscale>  0 0.48793855E+02</rscale>
<asrwt>0</asrwt>
<pdfrwt beam="2">  1        2 0.10714462E+00 0.48793855E+02</pdfrwt>
<pdfrwt beam="1">  1       -2 0.13148409E-03 0.48793855E+02</pdfrwt>
<totfact> 0.11673071E+06</totfact>
</mgrwt>
</event>
<event>
 4    1  0.4696545E-002  0.5061720E+02  0.7818608E-02  0.1442041E+00
         -2   -1    0    0  501    0 -0.00000000000E+00  0.00000000000E+00  0.53953217193E+00  0.53953819795E+00  0.25500000000E-02 0. -1.
          2   -1    0    0    0  501  0.00000000000E+00 -0.00000000000E+00 -0.11871797517E+04  0.11871797517E+04  0.25500000000E-02 0. -1.
          2    1    1    2    0  502  0.33331777434E+01  0.19905925030E+02 -0.23501633082E+03  0.23588139326E+03  0.25500000000E-02 0. -1.
         -2    1    1    2  502    0 -0.33331777434E+01 -0.19905925030E+02 -0.95162388873E+03  0.95183789667E+03  0.25500000000E-02 0. -1.
<mgrwt>
<rscale>  0 0.50617201E+02</rscale>
<asrwt>0</asrwt>
<pdfrwt beam="2">  1        2 0.18264095E+00 0.50617201E+02</pdfrwt>
<pdfrwt beam="1">  1       -2 0.83006363E-04 0.50617201E+02</pdfrwt>
<totfact> 0.11189601E+06</totfact>
</mgrwt>
</event>
<event>
 4    1  0.4696545E-002  0.4362463E+02  0.7818608E-02  0.1483115E+00
         -2   -1    0    0  501    0 -0.00000000000E+00  0.00000000000E+00  0.79526132546E+01  0.79526136634E+01  0.25500000000E-02 0. -1.
          2   -1    0    0    0  501  0.00000000000E+00 -0.00000000000E+00 -0.59826511519E+02  0.59826511573E+02  0.25500000000E-02 0. -1.
          2    1    1    2    0  502  0.35372836131E+01  0.20971770268E+02 -0.33460655723E+02  0.39647736523E+02  0.25500000000E-02 0.  1.
         -2    1    1    2  502    0 -0.35372836131E+01 -0.20971770268E+02 -0.18413242542E+02  0.28131388714E+02  0.25500000000E-02 0.  1.
<mgrwt>
<rscale>  0 0.43624632E+02</rscale>
<asrwt>0</asrwt>
<pdfrwt beam="2">  1        2 0.92040784E-02 0.43624632E+02</pdfrwt>
<pdfrwt beam="1">  1       -2 0.12234790E-02 0.43624632E+02</pdfrwt>
<totfact> 0.75118860E+05</totfact>
</mgrwt>
</event>
<event>
 4    1  0.4696545E-002  0.8487335E+02  0.7818608E-02  0.1315764E+00
         -2   -1    0    0  501    0 -0.00000000000E+00  0.00000000000E+00  0.40763090118E+01  0.40763098094E+01  0.25500000000E-02 0.  1.
          2   -1    0    0    0  501  0.00000000000E+00 -0.00000000000E+00 -0.44178969472E+03  0.44178969472E+03  0.25500000000E-02 0.  1.
          2    1    1    2    0  502  0.61287264564E+01  0.27409158424E+02 -0.51734698930E+02  0.58866818611E+02  0.25500000000E-02 0.  1.
         -2    1    1    2  502    0 -0.61287264564E+01 -0.27409158424E+02 -0.38597868678E+03  0.38699918592E+03  0.25500000000E-02 0.  1.
<mgrwt>
<rscale>  0 0.84873353E+02</rscale>
<asrwt>0</asrwt>
<pdfrwt beam="2">  1        2 0.67967608E-01 0.84873353E+02</pdfrwt>
<pdfrwt beam="1">  1       -2 0.62712487E-03 0.84873353E+02</pdfrwt>
<totfact> 0.24976820E+05</totfact>
</mgrwt>
</event>
<event>
 4    1  0.4696545E-002  0.8350286E+02  0.7818608E-02  0.1319395E+00
         -2   -1    0    0  501    0 -0.00000000000E+00  0.00000000000E+00  0.16504897903E+02  0.16504898100E+02  0.25500000000E-02 0.  1.
          2   -1    0    0    0  501  0.00000000000E+00 -0.00000000000E+00 -0.10561603514E+03  0.10561603517E+03  0.25500000000E-02 0.  1.
          2    1    1    2    0  502  0.30503510477E+02 -0.24392563118E+02 -0.22976210376E+02  0.45314098651E+02  0.25500000000E-02 0. -1.
         -2    1    1    2  502    0 -0.30503510477E+02  0.24392563118E+02 -0.66134926862E+02  0.76806834620E+02  0.25500000000E-02 0. -1.
<mgrwt>
<rscale>  0 0.83502860E+02</rscale>
<asrwt>0</asrwt>
<pdfrwt beam="2">  1        2 0.16248620E-01 0.83502860E+02</pdfrwt>
<pdfrwt beam="1">  1       -2 0.25392151E-02 0.83502860E+02</pdfrwt>
<totfact> 0.15856234E+05</totfact>
</mgrwt>
</event>
<event>
 4    1  0.4696545E-002  0.5340668E+02  0.7818608E-02  0.1427788E+00
          2   -1    0    0    0  501  0.00000000000E+00  0.00000000000E+00  0.12228847735E+04  0.12228847735E+04  0.25500000000E-02 0. -1.
         -2   -1    0    0  501    0 -0.00000000000E+00 -0.00000000000E+00 -0.58310064470E+00  0.58310622047E+00  0.25500000000E-02 0. -1.
          2    1    1    2    0  502  0.83763594105E+00 -0.22549355436E+02  0.28403737048E+03  0.28493227774E+03  0.25500000000E-02 0.  1.
         -2    1    1    2  502    0 -0.83763594105E+00  0.22549355436E+02  0.93826430240E+03  0.93853560201E+03  0.25500000000E-02 0.  1.
<mgrwt>
<rscale>  0 0.53406678E+02</rscale>
<asrwt>0</asrwt>
<pdfrwt beam="1">  1        2 0.18813751E+00 0.53406678E+02</pdfrwt>
<pdfrwt beam="2">  1       -2 0.89707559E-04 0.53406678E+02</pdfrwt>
<totfact> 0.97638803E+05</totfact>
</mgrwt>
</event>
<event>
 4    1  0.4696545E-002  0.6350973E+02  0.7818608E-02  0.1383667E+00
         -2   -1    0    0  501    0 -0.00000000000E+00  0.00000000000E+00  0.11324460784E+01  0.11324489494E+01  0.25500000000E-02 0.  1.
          2   -1    0    0    0  501  0.00000000000E+00 -0.00000000000E+00 -0.89043545555E+03  0.89043545555E+03  0.25500000000E-02 0.  1.
          2    1    1    2    0  502 -0.90651405823E+01  0.29855338026E+02 -0.36177394748E+03  0.36311693305E+03  0.25500000000E-02 0. -1.
         -2    1    1    2  502    0  0.90651405823E+01 -0.29855338026E+02 -0.52752906199E+03  0.52845097146E+03  0.25500000000E-02 0. -1.
<mgrwt>
<rscale>  0 0.63509729E+02</rscale>
<asrwt>0</asrwt>
<pdfrwt beam="2">  1        2 0.13698951E+00 0.63509729E+02</pdfrwt>
<pdfrwt beam="1">  1       -2 0.17422341E-03 0.63509729E+02</pdfrwt>
<totfact> 0.63066106E+05</totfact>
</mgrwt>
</event>
<event>
 4    1  0.4696545E-002  0.6318634E+02  0.7818608E-02  0.1384927E+00
          2   -1    0    0    0  501  0.00000000000E+00  0.00000000000E+00  0.12910997967E+04  0.12910997967E+04  0.25500000000E-02 0. -1.
         -2   -1    0    0  501    0 -0.00000000000E+00 -0.00000000000E+00 -0.77308176353E+00  0.77308596909E+00  0.25500000000E-02 0. -1.
          2    1    1    2    0  502 -0.18393543866E+02  0.82506674738E+01  0.11425100881E+04  0.11426879265E+04  0.25500000000E-02 0. -1.
         -2    1    1    2  502    0  0.18393543866E+02 -0.82506674738E+01  0.14781662680E+03  0.14918495612E+03  0.25500000000E-02 0. -1.
<mgrwt>
<rscale>  0 0.63186341E+02</rscale>
<asrwt>0</asrwt>
<pdfrwt beam="1">  1        2 0.19863000E+00 0.63186341E+02</pdfrwt>
<pdfrwt beam="2">  1       -2 0.11893642E-03 0.63186341E+02</pdfrwt>
<totfact> 0.63472218E+05</totfact>
</mgrwt>
</event>
<event>
 4    1  0.4696545E-002  0.7532398E+02  0.7818608E-02  0.1342871E+00
         -2   -1    0    0  501    0 -0.00000000000E+00  0.00000000000E+00  0.36557804032E+01  0.36557812926E+01  0.25500000000E-02 0.  1.
          2   -1    0    0    0  501  0.00000000000E+00 -0.00000000000E+00 -0.38799519929E+03  0.38799519930E+03  0.25500000000E-02 0.  1.
          2    1    1    2    0  502 -0.13025542756E+02  0.23039765851E+02 -0.52851792606E+02  0.59108439015E+02  0.25500000000E-02 0.  1.
         -2    1    1    2  502    0  0.13025542756E+02 -0.23039765851E+02 -0.33148762628E+03  0.33254254158E+03  0.25500000000E-02 0.  1.
<mgrwt>
<rscale>  0 0.75323978E+02</rscale>
<asrwt>0</asrwt>
<pdfrwt beam="2">  1        2 0.59691537E-01 0.75323978E+02</pdfrwt>
<pdfrwt beam="1">  1       -2 0.56242813E-03 0.75323978E+02</pdfrwt>
<totfact> 0.32622794E+05</totfact>
</mgrwt>
</event>
<event>
 4    1  0.4696545E-002  0.7057071E+02  0.7818608E-02  0.1358163E+00
          2   -1    0    0    0  501  0.00000000000E+00  0.00000000000E+00  0.13622172490E+04  0.13622172490E+04  0.25500000000E-02 0. -1.
         -2   -1    0    0  501    0 -0.00000000000E+00 -0.00000000000E+00 -0.91399056526E+00  0.91399412246E+00  0.25500000000E-02 0. -1.
          2    1    1    2    0  502 -0.96456878986E+01  0.31969633482E+02  0.46045178217E+03  0.46166106666E+03  0.25500000000E-02 0. -1.
         -2    1    1    2  502    0  0.96456878986E+01 -0.31969633482E+02  0.90085147626E+03  0.90147017646E+03  0.25500000000E-02 0. -1.
<mgrwt>
<rscale>  0 0.70570706E+02</rscale>
<asrwt>0</asrwt>
<pdfrwt beam="1">  1        2 0.20957130E+00 0.70570706E+02</pdfrwt>
<pdfrwt beam="2">  1       -2 0.14061460E-03 0.70570706E+02</pdfrwt>
<totfact> 0.47336990E+05</totfact>
</mgrwt>
</event>
<event>
 4    1  0.4696545E-002  0.7483480E+02  0.7818608E-02  0.1344383E+00
         -2   -1    0    0  501    0 -0.00000000000E+00  0.00000000000E+00  0.44076315448E+02  0.44076315522E+02  0.25500000000E-02 0.  1.
          2   -1    0    0    0  501  0.00000000000E+00 -0.00000000000E+00 -0.31764496039E+02  0.31764496142E+02  0.25500000000E-02 0.  1.
          2    1    1    2    0  502 -0.17211997193E+02 -0.31391455933E+02 -0.48708720660E+01  0.36130343953E+02  0.25500000000E-02 0. -1.
         -2    1    1    2  502    0  0.17211997193E+02  0.31391455933E+02  0.17182691475E+02  0.39710467711E+02  0.25500000000E-02 0. -1.
<mgrwt>
<rscale>  0 0.74834804E+02</rscale>
<asrwt>0</asrwt>
<pdfrwt beam="2">  1        2 0.48868456E-02 0.74834804E+02</pdfrwt>
<pdfrwt beam="1">  1       -2 0.67809716E-02 0.74834804E+02</pdfrwt>
<totfact> 0.15877799E+05</totfact>
</mgrwt>
</event>
<event>
 4    1  0.4696545E-002  0.6677512E+02  0.7818608E-02  0.1371416E+00
          2   -1    0    0    0  501  0.00000000000E+00  0.00000000000E+00  0.13987190396E+04  0.13987190396E+04  0.25500000000E-02 0.  1.
         -2   -1    0    0  501    0 -0.00000000000E+00 -0.00000000000E+00 -0.79696226520E+00  0.79696634475E+00  0.25500000000E-02 0.  1.
          2    1    1    2    0  502  0.26272623238E+02 -0.19637502595E+02  0.56833149755E+03  0.56927723769E+03  0.25500000000E-02 0. -1.
         -2    1    1    2  502    0 -0.26272623238E+02  0.19637502595E+02  0.82959057982E+03  0.83023876829E+03  0.25500000000E-02 0. -1.
<mgrwt>
<rscale>  0 0.66775120E+02</rscale>
<asrwt>0</asrwt>
<pdfrwt beam="1">  1        2 0.21518604E+00 0.66775120E+02</pdfrwt>
<pdfrwt beam="2">  1       -2 0.12261075E-03 0.66775120E+02</pdfrwt>
<totfact> 0.54153886E+05</totfact>
</mgrwt>
</event>
<event>
 4    1  0.4696545E-002  0.5006569E+02  0.7818608E-02  0.1444988E+00
          2   -1    0    0    0  501  0.00000000000E+00  0.00000000000E+00  0.78263402033E+03  0.78263402034E+03  0.25500000000E-02 0.  1.
         -2   -1    0    0  501    0 -0.00000000000E+00 -0.00000000000E+00 -0.80068311675E+00  0.80068717733E+00  0.25500000000E-02 0.  1.
          2    1    1    2    0  502  0.24347702968E+02 -0.38251086256E+01  0.32234759313E+03  0.32328843608E+03  0.25500000000E-02 0.  1.
         -2    1    1    2  502    0 -0.24347702968E+02  0.38251086256E+01  0.45948574408E+03  0.46014627144E+03  0.25500000000E-02 0.  1.
<mgrwt>
<rscale>  0 0.50065694E+02</rscale>
<asrwt>0</asrwt>
<pdfrwt beam="1">  1        2 0.12040553E+00 0.50065694E+02</pdfrwt>
<pdfrwt beam="2">  1       -2 0.12318203E-03 0.50065694E+02</pdfrwt>
<totfact> 0.11217534E+06</totfact>
</mgrwt>
</event>
<event>
 4    1  0.4696545E-002  0.7984184E+02  0.7818608E-02  0.1329501E+00
          2   -1    0    0    0  501  0.00000000000E+00  0.00000000000E+00  0.16567110589E+04  0.16567110589E+04  0.25500000000E-02 0.  1.
         -2   -1    0    0  501    0 -0.00000000000E+00 -0.00000000000E+00 -0.96195223914E+00  0.96195561898E+00  0.25500000000E-02 0.  1.
          2    1    1    2    0  502  0.11049787775E+02  0.25555990428E+02  0.23389623135E+03  0.23554756102E+03  0.25500000000E-02 0.  1.
         -2    1    1    2  502    0 -0.11049787775E+02 -0.25555990428E+02  0.14218528753E+04  0.14221254535E+04  0.25500000000E-02 0.  1.
<mgrwt>
<rscale>  0 0.79841837E+02</rscale>
<asrwt>0</asrwt>
<pdfrwt beam="1">  1        2 0.25487842E+00 0.79841837E+02</pdfrwt>
<pdfrwt beam="2">  1       -2 0.14799303E-03 0.79841837E+02</pdfrwt>
<totfact> 0.31935860E+05</totfact>
</mgrwt>
</event>
<event>
 4    1  0.4696545E-002  0.5061838E+02  0.7818608E-02  0.1442034E+00
         -2   -1    0    0  501    0 -0.00000000000E+00  0.00000000000E+00  0.30662843386E+02  0.30662843492E+02  0.25500000000E-02 0.  1.
          2   -1    0    0    0  501  0.00000000000E+00 -0.00000000000E+00 -0.20890273650E+02  0.20890273806E+02  0.25500000000E-02 0.  1.
          2    1    1    2    0  502  0.24036352547E+02  0.70368119252E+01  0.85994603654E+01  0.26480439780E+02  0.25500000000E-02 0.  1.
         -2    1    1    2  502    0 -0.24036352547E+02 -0.70368119252E+01  0.11731093702E+01  0.25072677518E+02  0.25500000000E-02 0.  1.
<mgrwt>
<rscale>  0 0.50618384E+02</rscale>
<asrwt>0</asrwt>
<pdfrwt beam="2">  1        2 0.32138883E-02 0.50618384E+02</pdfrwt>
<pdfrwt beam="1">  1       -2 0.47173605E-02 0.50618384E+02</pdfrwt>
<totfact> 0.42908555E+05</totfact>
</mgrwt>
</event>
<event>
 4    1  0.4696545E-002  0.2364879E+03  0.7818608E-02  0.1122155E+00
         -2   -1    0    0  501    0 -0.00000000000E+00  0.00000000000E+00  0.61350987035E+01  0.61350992335E+01  0.25500000000E-02 0.  1.
          2   -1    0    0    0  501  0.00000000000E+00 -0.00000000000E+00 -0.22789582270E+04  0.22789582270E+04  0.25500000000E-02 0.  1.
          2    1    1    2    0  502 -0.95066168370E+02  0.43036549684E+01 -0.45826784144E+03  0.46804434866E+03  0.25500000000E-02 0.  1.
         -2    1    1    2  502    0  0.95066168370E+02 -0.43036549684E+01 -0.18145552868E+04  0.18170489776E+04  0.25500000000E-02 0.  1.
<mgrwt>
<rscale>  0 0.23648792E+03</rscale>
<asrwt>0</asrwt>
<pdfrwt beam="2">  1        2 0.35060828E+00 0.23648792E+03</pdfrwt>
<pdfrwt beam="1">  1       -2 0.94386320E-03 0.23648792E+03</pdfrwt>
<totfact> 0.12220413E+04</totfact>
</mgrwt>
</event>
<event>
 4    1  0.4696545E-002  0.5440340E+02  0.7818608E-02  0.1422942E+00
          2   -1    0    0    0  501  0.00000000000E+00  0.00000000000E+00  0.51602520718E+02  0.51602520781E+02  0.25500000000E-02 0.  1.
         -2   -1    0    0  501    0 -0.00000000000E+00 -0.00000000000E+00 -0.14339073626E+02  0.14339073853E+02  0.25500000000E-02 0.  1.
          2    1    1    2    0  502  0.20667325601E+02  0.10504769752E+02  0.35877616820E+02  0.42716412890E+02  0.25500000000E-02 0. -1.
         -2    1    1    2  502    0 -0.20667325601E+02 -0.10504769752E+02  0.13858302723E+01  0.23225181745E+02  0.25500000000E-02 0. -1.
<mgrwt>
<rscale>  0 0.54403395E+02</rscale>
<asrwt>0</asrwt>
<pdfrwt beam="1">  1        2 0.79388494E-02 0.54403395E+02</pdfrwt>
<pdfrwt beam="2">  1       -2 0.22060113E-02 0.54403395E+02</pdfrwt>
<totfact> 0.41481740E+05</totfact>
</mgrwt>
</event>
<event>
 4    1  0.4696545E-002  0.5581927E+02  0.7818608E-02  0.1416264E+00
         -2   -1    0    0  501    0 -0.00000000000E+00  0.00000000000E+00  0.32054709950E+01  0.32054720093E+01  0.25500000000E-02 0.  1.
          2   -1    0    0    0  501  0.00000000000E+00 -0.00000000000E+00 -0.24300563392E+03  0.24300563393E+03  0.25500000000E-02 0.  1.
          2    1    1    2    0  502 -0.24400659601E+02  0.12745337431E+02 -0.14016693395E+03  0.14284468906E+03  0.25500000000E-02 0.  1.
         -2    1    1    2  502    0  0.24400659601E+02 -0.12745337431E+02 -0.99633228976E+02  0.10336641688E+03  0.25500000000E-02 0.  1.
<mgrwt>
<rscale>  0 0.55819267E+02</rscale>
<asrwt>0</asrwt>
<pdfrwt beam="2">  1        2 0.37385468E-01 0.55819267E+02</pdfrwt>
<pdfrwt beam="1">  1       -2 0.49314966E-03 0.55819267E+02</pdfrwt>
<totfact> 0.59617402E+05</totfact>
</mgrwt>
</event>
<event>
 4    1  0.4696545E-002  0.1141941E+03  0.7818608E-02  0.1252994E+00
         -2   -1    0    0  501    0 -0.00000000000E+00  0.00000000000E+00  0.89446660736E+02  0.89446660773E+02  0.25500000000E-02 0.  1.
          2   -1    0    0    0  501  0.00000000000E+00 -0.00000000000E+00 -0.36447095342E+02  0.36447095432E+02  0.25500000000E-02 0.  1.
          2    1    1    2    0  502  0.46992505528E+02 -0.22978617032E+02  0.12692608309E+01  0.52325170292E+02  0.25500000000E-02 0.  1.
         -2    1    1    2  502    0 -0.46992505528E+02  0.22978617032E+02  0.51730304563E+02  0.73568585913E+02  0.25500000000E-02 0.  1.
<mgrwt>
<rscale>  0 0.11419406E+03</rscale>
<asrwt>0</asrwt>
<pdfrwt beam="2">  1        2 0.56072455E-02 0.11419406E+03</pdfrwt>
<pdfrwt beam="1">  1       -2 0.13761025E-01 0.11419406E+03</pdfrwt>
<totfact> 0.47379819E+04</totfact>
</mgrwt>
</event>
<event>
 4    1  0.4696545E-002  0.4248283E+02  0.7818608E-02  0.1490697E+00
          2   -1    0    0    0  501  0.00000000000E+00  0.00000000000E+00  0.35791053864E+03  0.35791053865E+03  0.25500000000E-02 0. -1.
         -2   -1    0    0  501    0 -0.00000000000E+00 -0.00000000000E+00 -0.12606426966E+01  0.12606452756E+01  0.25500000000E-02 0. -1.
          2    1    1    2    0  502 -0.90255652943E+01 -0.17992857035E+02  0.23566244857E+03  0.23652059827E+03  0.25500000000E-02 0.  1.
         -2    1    1    2  502    0  0.90255652943E+01  0.17992857035E+02  0.12098744737E+03  0.12265058565E+03  0.25500000000E-02 0.  1.
<mgrwt>
<rscale>  0 0.42482833E+02</rscale>
<asrwt>0</asrwt>
<pdfrwt beam="1">  1        2 0.55063196E-01 0.42482833E+02</pdfrwt>
<pdfrwt beam="2">  1       -2 0.19394510E-03 0.42482833E+02</pdfrwt>
<totfact> 0.13424615E+06</totfact>
</mgrwt>
</event>
<event>
 4    1  0.4696545E-002  0.6794508E+02  0.7818608E-02  0.1367224E+00
         -2   -1    0    0  501    0 -0.00000000000E+00  0.00000000000E+00  0.26500348950E+01  0.26500361219E+01  0.25500000000E-02 0. -1.
          2   -1    0    0    0  501  0.00000000000E+00 -0.00000000000E+00 -0.43551620266E+03  0.43551620267E+03  0.25500000000E-02 0. -1.
          2    1    1    2    0  502  0.11389305917E+02  0.20449786496E+02 -0.37521361024E+03  0.37594303208E+03  0.25500000000E-02 0. -1.
         -2    1    1    2  502    0 -0.11389305917E+02 -0.20449786496E+02 -0.57652557529E+02  0.62223206709E+02  0.25500000000E-02 0. -1.
<mgrwt>
<rscale>  0 0.67945078E+02</rscale>
<asrwt>0</asrwt>
<pdfrwt beam="2">  1        2 0.67002436E-01 0.67945078E+02</pdfrwt>
<pdfrwt beam="1">  1       -2 0.40769812E-03 0.67945078E+02</pdfrwt>
<totfact> 0.44319021E+05</totfact>
</mgrwt>
</event>
<event>
 4    1  0.4696545E-002  0.5226551E+02  0.7818608E-02  0.1433491E+00
          2   -1    0    0    0  501  0.00000000000E+00  0.00000000000E+00  0.25315586487E+04  0.25315586487E+04  0.25500000000E-02 0.  1.
         -2   -1    0    0  501    0 -0.00000000000E+00 -0.00000000000E+00 -0.26975696156E+00  0.26976901381E+00  0.25500000000E-02 0.  1.
          2    1    1    2    0  502 -0.15636897961E+02 -0.20835087273E+02  0.13661814131E+04  0.13664297520E+04  0.25500000000E-02 0. -1.
         -2    1    1    2  502    0  0.15636897961E+02  0.20835087273E+02  0.11651074786E+04  0.11653986657E+04  0.25500000000E-02 0. -1.
<mgrwt>
<rscale>  0 0.52265508E+02</rscale>
<asrwt>0</asrwt>
<pdfrwt beam="1">  1        2 0.38944456E+00 0.52265508E+02</pdfrwt>
<pdfrwt beam="2">  1       -2 0.41504769E-04 0.52265508E+02</pdfrwt>
<totfact> 0.61465531E+05</totfact>
</mgrwt>
</event>
<event>
 4    1  0.4696545E-002  0.8293198E+02  0.7818608E-02  0.1320931E+00
          2   -1    0    0    0  501  0.00000000000E+00  0.00000000000E+00  0.98175557982E+03  0.98175557983E+03  0.25500000000E-02 0.  1.
         -2   -1    0    0  501    0 -0.00000000000E+00 -0.00000000000E+00 -0.17513803575E+01  0.17513822138E+01  0.25500000000E-02 0.  1.
          2    1    1    2    0  502 -0.13007960114E+02  0.19231669512E+02  0.82562330760E+02  0.85764809833E+02  0.25500000000E-02 0. -1.
         -2    1    1    2  502    0  0.13007960114E+02 -0.19231669512E+02  0.89744186871E+03  0.89774215221E+03  0.25500000000E-02 0. -1.
<mgrwt>
<rscale>  0 0.82931981E+02</rscale>
<asrwt>0</asrwt>
<pdfrwt beam="1">  1        2 0.15103930E+00 0.82931981E+02</pdfrwt>
<pdfrwt beam="2">  1       -2 0.26944332E-03 0.82931981E+02</pdfrwt>
<totfact> 0.32020909E+05</totfact>
</mgrwt>
</event>
<event>
 4    1  0.4696545E-002  0.5248226E+02  0.7818608E-02  0.1432395E+00
          2   -1    0    0    0  501  0.00000000000E+00  0.00000000000E+00  0.10259244115E+04  0.10259244115E+04  0.25500000000E-02 0.  1.
         -2   -1    0    0  501    0 -0.00000000000E+00 -0.00000000000E+00 -0.67119402652E+00  0.67119887048E+00  0.25500000000E-02 0.  1.
          2    1    1    2    0  502 -0.14237029219E+02 -0.16691605286E+02  0.79425757273E+03  0.79456050401E+03  0.25500000000E-02 0. -1.
         -2    1    1    2  502    0  0.14237029219E+02  0.16691605286E+02  0.23099564475E+03  0.23203510637E+03  0.25500000000E-02 0. -1.
<mgrwt>
<rscale>  0 0.52482257E+02</rscale>
<asrwt>0</asrwt>
<pdfrwt beam="1">  1        2 0.15783542E+00 0.52482257E+02</pdfrwt>
<pdfrwt beam="2">  1       -2 0.10326041E-03 0.52482257E+02</pdfrwt>
<totfact> 0.10278552E+06</totfact>
</mgrwt>
</event>
<event>
 4    1  0.4696545E-002  0.5124015E+02  0.7818608E-02  0.1438765E+00
          2   -1    0    0    0  501  0.00000000000E+00  0.00000000000E+00  0.21068469818E+04  0.21068469818E+04  0.25500000000E-02 0.  1.
         -2   -1    0    0  501    0 -0.00000000000E+00 -0.00000000000E+00 -0.31154483242E+00  0.31155526814E+00  0.25500000000E-02 0.  1.
          2    1    1    2    0  502  0.23188223378E+02  0.86375609800E+01  0.78021742108E+03  0.78060971383E+03  0.25500000000E-02 0.  1.
         -2    1    1    2  502    0 -0.23188223378E+02 -0.86375609800E+01  0.13263180159E+04  0.13265488233E+04  0.25500000000E-02 0.  1.
<mgrwt>
<rscale>  0 0.51240152E+02</rscale>
<asrwt>0</asrwt>
<pdfrwt beam="1">  1        2 0.32413115E+00 0.51240152E+02</pdfrwt>
<pdfrwt beam="2">  1       -2 0.47930652E-04 0.51240152E+02</pdfrwt>
<totfact> 0.82333813E+05</totfact>
</mgrwt>
</event>
<event>
 4    1  0.4696545E-002  0.4048206E+02  0.7818608E-02  0.1504694E+00
         -2   -1    0    0  501    0 -0.00000000000E+00  0.00000000000E+00  0.16672568703E+03  0.16672568705E+03  0.25500000000E-02 0. -1.
          2   -1    0    0    0  501  0.00000000000E+00 -0.00000000000E+00 -0.24573247918E+01  0.24573261149E+01  0.25500000000E-02 0. -1.
          2    1    1    2    0  502  0.80031177741E+01  0.18524847809E+02  0.88714798712E+02  0.90980961731E+02  0.25500000000E-02 0. -1.
         -2    1    1    2  502    0 -0.80031177741E+01 -0.18524847809E+02  0.75553563531E+02  0.78202051438E+02  0.25500000000E-02 0. -1.
<mgrwt>
<rscale>  0 0.40482059E+02</rscale>
<asrwt>0</asrwt>
<pdfrwt beam="2">  1        2 0.37805004E-03 0.40482059E+02</pdfrwt>
<pdfrwt beam="1">  1       -2 0.25650108E-01 0.40482059E+02</pdfrwt>
<totfact> 0.50516761E+05</totfact>
</mgrwt>
</event>
<event>
 4    1  0.4696545E-002  0.5587326E+02  0.7818608E-02  0.1416014E+00
         -2   -1    0    0  501    0 -0.00000000000E+00  0.00000000000E+00  0.32821770043E+02  0.32821770142E+02  0.25500000000E-02 0.  1.
          2   -1    0    0    0  501  0.00000000000E+00 -0.00000000000E+00 -0.23778586740E+02  0.23778586877E+02  0.25500000000E-02 0.  1.
          2    1    1    2    0  502  0.19227028624E+02  0.20267421018E+02  0.44291813751E+01  0.28285413884E+02  0.25500000000E-02 0.  1.
         -2    1    1    2  502    0 -0.19227028624E+02 -0.20267421018E+02  0.46140019283E+01  0.28314943135E+02  0.25500000000E-02 0.  1.
<mgrwt>
<rscale>  0 0.55873261E+02</rscale>
<asrwt>0</asrwt>
<pdfrwt beam="2">  1        2 0.36582441E-02 0.55873261E+02</pdfrwt>
<pdfrwt beam="1">  1       -2 0.50495031E-02 0.55873261E+02</pdfrwt>
<totfact> 0.33620772E+05</totfact>
</mgrwt>
</event>
<event>
 4    1  0.4696545E-002  0.5929503E+02  0.7818608E-02  0.1400814E+00
         -2   -1    0    0  501    0 -0.00000000000E+00  0.00000000000E+00  0.92616202647E+01  0.92616206157E+01  0.25500000000E-02 0.  1.
          2   -1    0    0    0  501  0.00000000000E+00 -0.00000000000E+00 -0.94905119222E+02  0.94905119256E+02  0.25500000000E-02 0.  1.
          2    1    1    2    0  502 -0.28320933275E+02 -0.57355666617E+01 -0.54475156331E+02  0.61664533163E+02  0.25500000000E-02 0.  1.
         -2    1    1    2  502    0  0.28320933275E+02  0.57355666617E+01 -0.31168342626E+02  0.42502206708E+02  0.25500000000E-02 0.  1.
<mgrwt>
<rscale>  0 0.59295032E+02</rscale>
<asrwt>0</asrwt>
<pdfrwt beam="2">  1        2 0.14600787E-01 0.59295032E+02</pdfrwt>
<pdfrwt beam="1">  1       -2 0.14248648E-02 0.59295032E+02</pdfrwt>
<totfact> 0.38149295E+05</totfact>
</mgrwt>
</event>
<event>
 4    1  0.4696545E-002  0.8378288E+02  0.7818608E-02  0.1318646E+00
         -2   -1    0    0  501    0 -0.00000000000E+00  0.00000000000E+00  0.91422674463E+00  0.91423030091E+00  0.25500000000E-02 0.  1.
          2   -1    0    0    0  501  0.00000000000E+00 -0.00000000000E+00 -0.19195340132E+04  0.19195340132E+04  0.25500000000E-02 0.  1.
          2    1    1    2    0  502 -0.36981482957E+02  0.15648891518E+02 -0.12328140736E+04  0.12334678990E+04  0.25500000000E-02 0.  1.
         -2    1    1    2  502    0  0.36981482957E+02 -0.15648891518E+02 -0.68580571283E+03  0.68698034444E+03  0.25500000000E-02 0.  1.
<mgrwt>
<rscale>  0 0.83782880E+02</rscale>
<asrwt>0</asrwt>
<pdfrwt beam="2">  1        2 0.29530970E+00 0.83782880E+02</pdfrwt>
<pdfrwt beam="1">  1       -2 0.14065208E-03 0.83782880E+02</pdfrwt>
<totfact> 0.25495481E+05</totfact>
</mgrwt>
</event>
<event>
 4    1  0.4696545E-002  0.4418973E+02  0.7818608E-02  0.1479464E+00
         -2   -1    0    0  501    0 -0.00000000000E+00  0.00000000000E+00  0.22919110128E+01  0.22919124313E+01  0.25500000000E-02 0.  1.
          2   -1    0    0    0  501  0.00000000000E+00 -0.00000000000E+00 -0.21300259200E+03  0.21300259202E+03  0.25500000000E-02 0.  1.
          2    1    1    2    0  502 -0.19404392178E+02  0.98985954871E+01 -0.12336907890E+03  0.12527746111E+03  0.25500000000E-02 0. -1.
         -2    1    1    2  502    0  0.19404392178E+02 -0.98985954871E+01 -0.87341602095E+02  0.90017043339E+02  0.25500000000E-02 0. -1.
<mgrwt>
<rscale>  0 0.44189734E+02</rscale>
<asrwt>0</asrwt>
<pdfrwt beam="2">  1        2 0.32769614E-01 0.44189734E+02</pdfrwt>
<pdfrwt beam="1">  1       -2 0.35260197E-03 0.44189734E+02</pdfrwt>
<totfact> 0.10216151E+06</totfact>
</mgrwt>
</event>
<event>
 4    1  0.4696545E-002  0.4078882E+02  0.7818608E-02  0.1502486E+00
          2   -1    0    0    0  501  0.00000000000E+00  0.00000000000E+00  0.13657706121E+01  0.13657729927E+01  0.25500000000E-02 0. -1.
         -2   -1    0    0  501    0 -0.00000000000E+00 -0.00000000000E+00 -0.30453992365E+03  0.30453992366E+03  0.25500000000E-02 0. -1.
          2    1    1    2    0  502 -0.12061853613E+02 -0.16320414219E+02 -0.16675029624E+03  0.16798067012E+03  0.25500000000E-02 0.  1.
         -2    1    1    2  502    0  0.12061853613E+02  0.16320414219E+02 -0.13642385680E+03  0.13792502653E+03  0.25500000000E-02 0.  1.
<mgrwt>
<rscale>  0 0.40788824E+02</rscale>
<asrwt>0</asrwt>
<pdfrwt beam="1">  1        2 0.21011898E-03 0.40788824E+02</pdfrwt>
<pdfrwt beam="2">  1       -2 0.46852242E-01 0.40788824E+02</pdfrwt>
<totfact> 0.37789194E+05</totfact>
</mgrwt>
</event>
<event>
 4    1  0.4696545E-002  0.4712817E+02  0.7818608E-02  0.1461477E+00
          2   -1    0    0    0  501  0.00000000000E+00  0.00000000000E+00  0.49063997666E+01  0.49064004292E+01  0.25500000000E-02 0. -1.
         -2   -1    0    0  501    0 -0.00000000000E+00 -0.00000000000E+00 -0.11317181402E+03  0.11317181405E+03  0.25500000000E-02 0. -1.
          2    1    1    2    0  502  0.21297044552E+02 -0.94017707124E+01 -0.44992446854E+02  0.50658441346E+02  0.25500000000E-02 0. -1.
         -2    1    1    2  502    0 -0.21297044552E+02  0.94017707124E+01 -0.63272967401E+02  0.67419773134E+02  0.25500000000E-02 0. -1.
<mgrwt>
<rscale>  0 0.47128174E+02</rscale>
<asrwt>0</asrwt>
<pdfrwt beam="1">  1        2 0.75483087E-03 0.47128174E+02</pdfrwt>
<pdfrwt beam="2">  1       -2 0.17411046E-01 0.47128174E+02</pdfrwt>
<totfact> 0.39467069E+05</totfact>
</mgrwt>
</event>
<event>
 4    1  0.4696545E-002  0.6512924E+02  0.7818608E-02  0.1377486E+00
          2   -1    0    0    0  501  0.00000000000E+00  0.00000000000E+00  0.92715153122E+01  0.92715156629E+01  0.25500000000E-02 0.  1.
         -2   -1    0    0  501    0 -0.00000000000E+00 -0.00000000000E+00 -0.11437768435E+03  0.11437768438E+03  0.25500000000E-02 0.  1.
          2    1    1    2    0  502  0.15823510191E+02 -0.19793678973E+02 -0.91381485686E+02  0.94830106689E+02  0.25500000000E-02 0.  1.
         -2    1    1    2  502    0 -0.15823510191E+02  0.19793678973E+02 -0.13724683352E+02  0.28819093352E+02  0.25500000000E-02 0.  1.
<mgrwt>
<rscale>  0 0.65129240E+02</rscale>
<asrwt>0</asrwt>
<pdfrwt beam="1">  1        2 0.14263871E-02 0.65129240E+02</pdfrwt>
<pdfrwt beam="2">  1       -2 0.17596566E-01 0.65129240E+02</pdfrwt>
<totfact> 0.17748550E+05</totfact>
</mgrwt>
</event>
<event>
 4    1  0.4696545E-002  0.5527862E+02  0.7818608E-02  0.1418786E+00
          2   -1    0    0    0  501  0.00000000000E+00  0.00000000000E+00  0.13271149668E+03  0.13271149670E+03  0.25500000000E-02 0.  1.
         -2   -1    0    0  501    0 -0.00000000000E+00 -0.00000000000E+00 -0.57563325961E+01  0.57563331609E+01  0.25500000000E-02 0.  1.
          2    1    1    2    0  502  0.17032284846E+02 -0.20359570129E+02  0.82770365627E+02  0.86922633735E+02  0.25500000000E-02 0.  1.
         -2    1    1    2  502    0 -0.17032284846E+02  0.20359570129E+02  0.44184798457E+02  0.51545196130E+02  0.25500000000E-02 0.  1.
<mgrwt>
<rscale>  0 0.55278624E+02</rscale>
<asrwt>0</asrwt>
<pdfrwt beam="1">  1        2 0.20417154E-01 0.55278624E+02</pdfrwt>
<pdfrwt beam="2">  1       -2 0.88558965E-03 0.55278624E+02</pdfrwt>
<totfact> 0.50192101E+05</totfact>
</mgrwt>
</event>
<event>
 4    1  0.4696545E-002  0.4458602E+02  0.7818608E-02  0.1476943E+00
         -2   -1    0    0  501    0 -0.00000000000E+00  0.00000000000E+00  0.78506120960E+02  0.78506121001E+02  0.25500000000E-02 0. -1.
          2   -1    0    0    0  501  0.00000000000E+00 -0.00000000000E+00 -0.63304400993E+01  0.63304406129E+01  0.25500000000E-02 0. -1.
          2    1    1    2    0  502 -0.13700256877E+02  0.16129993097E+02  0.22754301959E+02  0.31074619547E+02  0.25500000000E-02 0.  1.
         -2    1    1    2  502    0  0.13700256877E+02 -0.16129993097E+02  0.49421378902E+02  0.53761942067E+02  0.25500000000E-02 0.  1.
<mgrwt>
<rscale>  0 0.44586021E+02</rscale>
<asrwt>0</asrwt>
<pdfrwt beam="2">  1        2 0.97391383E-03 0.44586021E+02</pdfrwt>
<pdfrwt beam="1">  1       -2 0.12077866E-01 0.44586021E+02</pdfrwt>
<totfact> 0.49292650E+05</totfact>
</mgrwt>
</event>
<event>
 4    1  0.4696545E-002  0.4777481E+02  0.7818608E-02  0.1457727E+00
          2   -1    0    0    0  501  0.00000000000E+00  0.00000000000E+00  0.11385943153E+04  0.11385943153E+04  0.25500000000E-02 0.  1.
         -2   -1    0    0  501    0 -0.00000000000E+00 -0.00000000000E+00 -0.50114813610E+00  0.50115462366E+00  0.25500000000E-02 0.  1.
          2    1    1    2    0  502 -0.79035313411E+01  0.19108457111E+02  0.28391646335E+03  0.28466850389E+03  0.25500000000E-02 0. -1.
         -2    1    1    2  502    0  0.79035313411E+01 -0.19108457111E+02  0.85417670382E+03  0.85442696604E+03  0.25500000000E-02 0. -1.
<mgrwt>
<rscale>  0 0.47774810E+02</rscale>
<asrwt>0</asrwt>
<pdfrwt beam="1">  1        2 0.17516789E+00 0.47774810E+02</pdfrwt>
<pdfrwt beam="2">  1       -2 0.77100419E-04 0.47774810E+02</pdfrwt>
<totfact> 0.12943792E+06</totfact>
</mgrwt>
</event>
<event>
 4    1  0.4696545E-002  0.5407042E+02  0.7818608E-02  0.1424547E+00
         -2   -1    0    0  501    0 -0.00000000000E+00  0.00000000000E+00  0.10092860549E+01  0.10092892762E+01  0.25500000000E-02 0. -1.
          2   -1    0    0    0  501  0.00000000000E+00 -0.00000000000E+00 -0.72417667503E+03  0.72417667504E+03  0.25500000000E-02 0. -1.
          2    1    1    2    0  502  0.31779849062E+00  0.23005353367E+02 -0.17117500727E+03  0.17271430282E+03  0.25500000000E-02 0. -1.
         -2    1    1    2  502    0 -0.31779849062E+00 -0.23005353367E+02 -0.55199238171E+03  0.55247166149E+03  0.25500000000E-02 0. -1.
<mgrwt>
<rscale>  0 0.54070420E+02</rscale>
<asrwt>0</asrwt>
<pdfrwt beam="2">  1        2 0.11141138E+00 0.54070420E+02</pdfrwt>
<pdfrwt beam="1">  1       -2 0.15527561E-03 0.54070420E+02</pdfrwt>
<totfact> 0.91298143E+05</totfact>
</mgrwt>
</event>
<event>
 4    1  0.4696545E-002  0.8139184E+02  0.7818608E-02  0.1325147E+00
          2   -1    0    0    0  501  0.00000000000E+00  0.00000000000E+00  0.23065235241E+02  0.23065235382E+02  0.25500000000E-02 0.  1.
         -2   -1    0    0  501    0 -0.00000000000E+00 -0.00000000000E+00 -0.71803216399E+02  0.71803216444E+02  0.25500000000E-02 0.  1.
          2    1    1    2    0  502 -0.35688445317E+02  0.14360360457E+01 -0.47103141054E+02  0.59113731335E+02  0.25500000000E-02 0.  1.
         -2    1    1    2  502    0  0.35688445317E+02 -0.14360360457E+01 -0.16348401032E+01  0.35754720490E+02  0.25500000000E-02 0.  1.
<mgrwt>
<rscale>  0 0.81391844E+02</rscale>
<asrwt>0</asrwt>
<pdfrwt beam="1">  1        2 0.35484978E-02 0.81391844E+02</pdfrwt>
<pdfrwt beam="2">  1       -2 0.11046649E-01 0.81391844E+02</pdfrwt>
<totfact> 0.11564300E+05</totfact>
</mgrwt>
</event>
<event>
 4    1  0.4696545E-002  0.8461354E+02  0.7818608E-02  0.1316446E+00
         -2   -1    0    0  501    0 -0.00000000000E+00  0.00000000000E+00  0.38060308983E+02  0.38060309068E+02  0.25500000000E-02 0.  1.
          2   -1    0    0    0  501  0.00000000000E+00 -0.00000000000E+00 -0.47027016794E+02  0.47027016864E+02  0.25500000000E-02 0.  1.
          2    1    1    2    0  502 -0.40191500110E+02  0.12414564466E+01  0.87418991982E+01  0.41149953867E+02  0.25500000000E-02 0.  1.
         -2    1    1    2  502    0  0.40191500110E+02 -0.12414564466E+01 -0.17708607010E+02  0.43937372064E+02  0.25500000000E-02 0.  1.
<mgrwt>
<rscale>  0 0.84613540E+02</rscale>
<asrwt>0</asrwt>
<pdfrwt beam="2">  1        2 0.72349257E-02 0.84613540E+02</pdfrwt>
<pdfrwt beam="1">  1       -2 0.58554322E-02 0.84613540E+02</pdfrwt>
<totfact> 0.12298868E+05</totfact>
</mgrwt>
</event>
<event>
 4    1  0.4696545E-002  0.4453357E+02  0.7818608E-02  0.1477275E+00
         -2   -1    0    0  501    0 -0.00000000000E+00  0.00000000000E+00  0.35121206528E+01  0.35121215785E+01  0.25500000000E-02 0. -1.
          2   -1    0    0    0  501  0.00000000000E+00 -0.00000000000E+00 -0.14117104839E+03  0.14117104841E+03  0.25500000000E-02 0. -1.
          2    1    1    2    0  502 -0.16807088372E+02 -0.12453446138E+02 -0.93623849730E+02  0.95932224956E+02  0.25500000000E-02 0.  1.
         -2    1    1    2  502    0  0.16807088372E+02  0.12453446138E+02 -0.44035078004E+02  0.48750945033E+02  0.25500000000E-02 0.  1.
<mgrwt>
<rscale>  0 0.44533575E+02</rscale>
<asrwt>0</asrwt>
<pdfrwt beam="2">  1        2 0.21718618E-01 0.44533575E+02</pdfrwt>
<pdfrwt beam="1">  1       -2 0.54032644E-03 0.44533575E+02</pdfrwt>
<totfact> 0.88059196E+05</totfact>
</mgrwt>
</event>
<event>
 4    1  0.4696545E-002  0.1255040E+03  0.7818608E-02  0.1234284E+00
         -2   -1    0    0  501    0 -0.00000000000E+00  0.00000000000E+00  0.66794419723E+02  0.66794419772E+02  0.25500000000E-02 0.  1.
          2   -1    0    0    0  501  0.00000000000E+00 -0.00000000000E+00 -0.58954217178E+02  0.58954217233E+02  0.25500000000E-02 0.  1.
          2    1    1    2    0  502 -0.46711188627E+02  0.41210159526E+02  0.11524384218E+02  0.63348431940E+02  0.25500000000E-02 0. -1.
         -2    1    1    2  502    0  0.46711188627E+02 -0.41210159526E+02 -0.36841816732E+01  0.62400205065E+02  0.25500000000E-02 0. -1.
<mgrwt>
<rscale>  0 0.12550399E+03</rscale>
<asrwt>0</asrwt>
<pdfrwt beam="2">  1        2 0.90698796E-02 0.12550399E+03</pdfrwt>
<pdfrwt beam="1">  1       -2 0.10276065E-01 0.12550399E+03</pdfrwt>
<totfact> 0.41562075E+04</totfact>
</mgrwt>
</event>
<event>
 4    1  0.4696545E-002  0.6444691E+02  0.7818608E-02  0.1380064E+00
         -2   -1    0    0  501    0 -0.00000000000E+00  0.00000000000E+00  0.30758084041E+00  0.30759141062E+00  0.25500000000E-02 0. -1.
          2   -1    0    0    0  501  0.00000000000E+00 -0.00000000000E+00 -0.33758053895E+04  0.33758053895E+04  0.25500000000E-02 0. -1.
          2    1    1    2    0  502 -0.29265664554E+02 -0.94958977152E+01 -0.21893966503E+04  0.21896128296E+04  0.25500000000E-02 0. -1.
         -2    1    1    2  502    0  0.29265664554E+02  0.94958977152E+01 -0.11861011583E+04  0.11865001513E+04  0.25500000000E-02 0. -1.
<mgrwt>
<rscale>  0 0.64446905E+02</rscale>
<asrwt>0</asrwt>
<pdfrwt beam="2">  1        2 0.51932501E+00 0.64446905E+02</pdfrwt>
<pdfrwt beam="1">  1       -2 0.47323646E-04 0.64446905E+02</pdfrwt>
<totfact> 0.17972918E+05</totfact>
</mgrwt>
</event>
<event>
 4    1  0.4696545E-002  0.4834970E+02  0.7818608E-02  0.1454452E+00
         -2   -1    0    0  501    0 -0.00000000000E+00  0.00000000000E+00  0.16858773263E+03  0.16858773265E+03  0.25500000000E-02 0. -1.
          2   -1    0    0    0  501  0.00000000000E+00 -0.00000000000E+00 -0.34665827048E+01  0.34665836427E+01  0.25500000000E-02 0. -1.
          2    1    1    2    0  502 -0.11390667112E+02  0.17872462219E+02  0.41175635231E+02  0.46309881734E+02  0.25500000000E-02 0. -1.
         -2    1    1    2  502    0  0.11390667112E+02 -0.17872462219E+02  0.12394551469E+03  0.12574443456E+03  0.25500000000E-02 0. -1.
<mgrwt>
<rscale>  0 0.48349701E+02</rscale>
<asrwt>0</asrwt>
<pdfrwt beam="2">  1        2 0.53332047E-03 0.48349701E+02</pdfrwt>
<pdfrwt beam="1">  1       -2 0.25936575E-01 0.48349701E+02</pdfrwt>
<totfact> 0.32703400E+05</totfact>
</mgrwt>
</event>
<event>
 4    1  0.4696545E-002  0.6173015E+02  0.7818608E-02  0.1390711E+00
          2   -1    0    0    0  501  0.00000000000E+00  0.00000000000E+00  0.47168208884E+03  0.47168208884E+03  0.25500000000E-02 0. -1.
         -2   -1    0    0  501    0 -0.00000000000E+00 -0.00000000000E+00 -0.20196918982E+01  0.20196935080E+01  0.25500000000E-02 0. -1.
          2    1    1    2    0  502  0.17112422133E+02 -0.11547176721E+02  0.41090667124E+03  0.41142491995E+03  0.25500000000E-02 0. -1.
         -2    1    1    2  502    0 -0.17112422133E+02  0.11547176721E+02  0.58755725700E+02  0.62276862401E+02  0.25500000000E-02 0. -1.
<mgrwt>
<rscale>  0 0.61730151E+02</rscale>
<asrwt>0</asrwt>
<pdfrwt beam="1">  1        2 0.72566379E-01 0.61730151E+02</pdfrwt>
<pdfrwt beam="2">  1       -2 0.31072237E-03 0.61730151E+02</pdfrwt>
<totfact> 0.58136973E+05</totfact>
</mgrwt>
</event>
<event>
 4    1  0.4696545E-002  0.1503911E+03  0.7818608E-02  0.1199993E+00
         -2   -1    0    0  501    0 -0.00000000000E+00  0.00000000000E+00  0.86641929221E+01  0.86641932974E+01  0.25500000000E-02 0.  1.
          2   -1    0    0    0  501  0.00000000000E+00 -0.00000000000E+00 -0.65261373204E+03  0.65261373204E+03  0.25500000000E-02 0.  1.
          2    1    1    2    0  502 -0.40243693511E+02 -0.43522507386E+02 -0.52541199494E+03  0.52874523917E+03  0.25500000000E-02 0.  1.
         -2    1    1    2  502    0  0.40243693511E+02  0.43522507386E+02 -0.11853754417E+03  0.13253268616E+03  0.25500000000E-02 0.  1.
<mgrwt>
<rscale>  0 0.15039111E+03</rscale>
<asrwt>0</asrwt>
<pdfrwt beam="2">  1        2 0.10040207E+00 0.15039111E+03</pdfrwt>
<pdfrwt beam="1">  1       -2 0.13329533E-02 0.15039111E+03</pdfrwt>
<totfact> 0.60134192E+04</totfact>
</mgrwt>
</event>
<event>
 4    1  0.4696545E-002  0.5003010E+02  0.7818608E-02  0.1445179E+00
          2   -1    0    0    0  501  0.00000000000E+00  0.00000000000E+00  0.55026154175E+03  0.55026154176E+03  0.25500000000E-02 0.  1.
         -2   -1    0    0  501    0 -0.00000000000E+00 -0.00000000000E+00 -0.11371898291E+01  0.11371926881E+01  0.25500000000E-02 0.  1.
          2    1    1    2    0  502 -0.22337219438E+02  0.34676107738E+00  0.39861029033E+03  0.39923581400E+03  0.25500000000E-02 0. -1.
         -2    1    1    2  502    0  0.22337219438E+02 -0.34676107738E+00  0.15051406160E+03  0.15216292045E+03  0.25500000000E-02 0. -1.
<mgrwt>
<rscale>  0 0.50030096E+02</rscale>
<asrwt>0</asrwt>
<pdfrwt beam="1">  1        2 0.84655819E-01 0.50030096E+02</pdfrwt>
<pdfrwt beam="2">  1       -2 0.17495210E-03 0.50030096E+02</pdfrwt>
<totfact> 0.10321423E+06</totfact>
</mgrwt>
</event>
<event>
 4    1  0.4696545E-002  0.5765432E+02  0.7818608E-02  0.1407948E+00
          2   -1    0    0    0  501  0.00000000000E+00  0.00000000000E+00  0.35478261141E+01  0.35478270305E+01  0.25500000000E-02 0. -1.
         -2   -1    0    0  501    0 -0.00000000000E+00 -0.00000000000E+00 -0.23422935460E+03  0.23422935461E+03  0.25500000000E-02 0. -1.
          2    1    1    2    0  502  0.21221227937E+02  0.10992161497E+02 -0.48861099667E+02  0.54392786256E+02  0.25500000000E-02 0.  1.
         -2    1    1    2  502    0 -0.21221227937E+02 -0.10992161497E+02 -0.18182042882E+03  0.18338439539E+03  0.25500000000E-02 0.  1.
<mgrwt>
<rscale>  0 0.57654319E+02</rscale>
<asrwt>0</asrwt>
<pdfrwt beam="1">  1        2 0.54581966E-03 0.57654319E+02</pdfrwt>
<pdfrwt beam="2">  1       -2 0.36035273E-01 0.57654319E+02</pdfrwt>
<totfact> 0.18498199E+05</totfact>
</mgrwt>
</event>
<event>
 4    1  0.4696545E-002  0.1095573E+03  0.7818608E-02  0.1261392E+00
         -2   -1    0    0  501    0 -0.00000000000E+00  0.00000000000E+00  0.12100026327E+02  0.12100026596E+02  0.25500000000E-02 0. -1.
          2   -1    0    0    0  501  0.00000000000E+00 -0.00000000000E+00 -0.24799129009E+03  0.24799129010E+03  0.25500000000E-02 0. -1.
          2    1    1    2    0  502  0.45897893650E+02 -0.29889746851E+02 -0.11991415289E+03  0.13183101941E+03  0.25500000000E-02 0. -1.
         -2    1    1    2  502    0 -0.45897893650E+02  0.29889746851E+02 -0.11597711087E+03  0.12826029728E+03  0.25500000000E-02 0. -1.
<mgrwt>
<rscale>  0 0.10955731E+03</rscale>
<asrwt>0</asrwt>
<pdfrwt beam="2">  1        2 0.38152503E-01 0.10955731E+03</pdfrwt>
<pdfrwt beam="1">  1       -2 0.18615427E-02 0.10955731E+03</pdfrwt>
<totfact> 0.10177847E+05</totfact>
</mgrwt>
</event>
<event>
 4    1  0.4696545E-002  0.4407719E+02  0.7818608E-02  0.1480186E+00
          2   -1    0    0    0  501  0.00000000000E+00  0.00000000000E+00  0.88196592150E+03  0.88196592151E+03  0.25500000000E-02 0. -1.
         -2   -1    0    0  501    0 -0.00000000000E+00 -0.00000000000E+00 -0.55069816100E+00  0.55070406484E+00  0.25500000000E-02 0. -1.
          2    1    1    2    0  502  0.57570838443E+01 -0.21179841522E+02  0.48060085524E+03  0.48110176861E+03  0.25500000000E-02 0. -1.
         -2    1    1    2  502    0 -0.57570838443E+01  0.21179841522E+02  0.40081436811E+03  0.40141485696E+03  0.25500000000E-02 0. -1.
<mgrwt>
<rscale>  0 0.44077188E+02</rscale>
<asrwt>0</asrwt>
<pdfrwt beam="1">  1        2 0.13568681E+00 0.44077188E+02</pdfrwt>
<pdfrwt beam="2">  1       -2 0.84723405E-04 0.44077188E+02</pdfrwt>
<totfact> 0.15602016E+06</totfact>
</mgrwt>
</event>
<event>
 4    1  0.4696545E-002  0.9866583E+02  0.7818608E-02  0.1283127E+00
         -2   -1    0    0  501    0 -0.00000000000E+00  0.00000000000E+00  0.99334370785E+01  0.99334374058E+01  0.25500000000E-02 0.  1.
          2   -1    0    0    0  501  0.00000000000E+00 -0.00000000000E+00 -0.24500444413E+03  0.24500444415E+03  0.25500000000E-02 0.  1.
          2    1    1    2    0  502 -0.99773182835E+01 -0.36637263573E+02 -0.36158511789E+02  0.52433519275E+02  0.25500000000E-02 0.  1.
         -2    1    1    2  502    0  0.99773182835E+01  0.36637263573E+02 -0.19891249527E+03  0.20250436228E+03  0.25500000000E-02 0.  1.
<mgrwt>
<rscale>  0 0.98665825E+02</rscale>
<asrwt>0</asrwt>
<pdfrwt beam="2">  1        2 0.37692987E-01 0.98665825E+02</pdfrwt>
<pdfrwt beam="1">  1       -2 0.15282213E-02 0.98665825E+02</pdfrwt>
<totfact> 0.13470410E+05</totfact>
</mgrwt>
</event>
<event>
 4    1  0.4696545E-002  0.5651015E+02  0.7818608E-02  0.1413089E+00
         -2   -1    0    0  501    0 -0.00000000000E+00  0.00000000000E+00  0.17912467253E+01  0.17912485404E+01  0.25500000000E-02 0. -1.
          2   -1    0    0    0  501  0.00000000000E+00 -0.00000000000E+00 -0.44569445285E+03  0.44569445285E+03  0.25500000000E-02 0. -1.
          2    1    1    2    0  502  0.79073296962E+01  0.19977721002E+02 -0.36725751337E+03  0.36788546633E+03  0.25500000000E-02 0.  1.
         -2    1    1    2  502    0 -0.79073296962E+01 -0.19977721002E+02 -0.76645692747E+02  0.79600235066E+02  0.25500000000E-02 0.  1.
<mgrwt>
<rscale>  0 0.56510146E+02</rscale>
<asrwt>0</asrwt>
<pdfrwt beam="2">  1        2 0.68568289E-01 0.56510146E+02</pdfrwt>
<pdfrwt beam="1">  1       -2 0.27557691E-03 0.56510146E+02</pdfrwt>
<totfact> 0.71341816E+05</totfact>
</mgrwt>
</event>
<event>
 4    1  0.4696545E-002  0.6799279E+02  0.7818608E-02  0.1367055E+00
          2   -1    0    0    0  501  0.00000000000E+00  0.00000000000E+00  0.59470282549E+03  0.59470282550E+03  0.25500000000E-02 0.  1.
         -2   -1    0    0  501    0 -0.00000000000E+00 -0.00000000000E+00 -0.19434148576E+01  0.19434165305E+01  0.25500000000E-02 0.  1.
          2    1    1    2    0  502  0.33378271981E+02  0.18093141456E+01  0.24202187836E+03  0.24431940625E+03  0.25500000000E-02 0.  1.
         -2    1    1    2  502    0 -0.33378271981E+02 -0.18093141456E+01  0.35073753228E+03  0.35232683578E+03  0.25500000000E-02 0.  1.
<mgrwt>
<rscale>  0 0.67992788E+02</rscale>
<asrwt>0</asrwt>
<pdfrwt beam="1">  1        2 0.91492663E-01 0.67992788E+02</pdfrwt>
<pdfrwt beam="2">  1       -2 0.29898729E-03 0.67992788E+02</pdfrwt>
<totfact> 0.48752995E+05</totfact>
</mgrwt>
</event>
<event>
 4    1  0.4696545E-002  0.6099077E+02  0.7818608E-02  0.1393720E+00
          2   -1    0    0    0  501  0.00000000000E+00  0.00000000000E+00  0.11371309470E+03  0.11371309473E+03  0.25500000000E-02 0. -1.
         -2   -1    0    0  501    0 -0.00000000000E+00 -0.00000000000E+00 -0.81781994264E+01  0.81781998239E+01  0.25500000000E-02 0. -1.
          2    1    1    2    0  502  0.27904417023E+02 -0.10020273783E+02  0.67026580837E+02  0.73291370033E+02  0.25500000000E-02 0.  1.
         -2    1    1    2  502    0 -0.27904417023E+02  0.10020273783E+02  0.38508314436E+02  0.48599924519E+02  0.25500000000E-02 0.  1.
<mgrwt>
<rscale>  0 0.60990766E+02</rscale>
<asrwt>0</asrwt>
<pdfrwt beam="1">  1        2 0.17494322E-01 0.60990766E+02</pdfrwt>
<pdfrwt beam="2">  1       -2 0.12581846E-02 0.60990766E+02</pdfrwt>
<totfact> 0.37262807E+05</totfact>
</mgrwt>
</event>
<event>
 4    1  0.4696545E-002  0.5187131E+02  0.7818608E-02  0.1435502E+00
          2   -1    0    0    0  501  0.00000000000E+00  0.00000000000E+00  0.76896597971E+02  0.76896598013E+02  0.25500000000E-02 0. -1.
         -2   -1    0    0  501    0 -0.00000000000E+00 -0.00000000000E+00 -0.87475684028E+01  0.87475687744E+01  0.25500000000E-02 0. -1.
          2    1    1    2    0  502 -0.59754691821E+01  0.24845858572E+02  0.26758243793E+02  0.37000358613E+02  0.25500000000E-02 0.  1.
         -2    1    1    2  502    0  0.59754691821E+01 -0.24845858572E+02  0.41390785775E+02  0.48643808174E+02  0.25500000000E-02 0.  1.
<mgrwt>
<rscale>  0 0.51871313E+02</rscale>
<asrwt>0</asrwt>
<pdfrwt beam="1">  1        2 0.11830245E-01 0.51871313E+02</pdfrwt>
<pdfrwt beam="2">  1       -2 0.13457798E-02 0.51871313E+02</pdfrwt>
<totfact> 0.51115034E+05</totfact>
</mgrwt>
</event>
<event>
 4    1  0.4696545E-002  0.4975597E+02  0.7818608E-02  0.1446662E+00
         -2   -1    0    0  501    0 -0.00000000000E+00  0.00000000000E+00  0.10013053146E+03  0.10013053149E+03  0.25500000000E-02 0.  1.
          2   -1    0    0    0  501  0.00000000000E+00 -0.00000000000E+00 -0.61810730167E+01  0.61810735427E+01  0.25500000000E-02 0.  1.
          2    1    1    2    0  502  0.15645917383E+02 -0.17261697705E+02  0.28328991064E+02  0.36678231686E+02  0.25500000000E-02 0.  1.
         -2    1    1    2  502    0 -0.15645917383E+02  0.17261697705E+02  0.65620467381E+02  0.69633373351E+02  0.25500000000E-02 0.  1.
<mgrwt>
<rscale>  0 0.49755971E+02</rscale>
<asrwt>0</asrwt>
<pdfrwt beam="2">  1        2 0.95093447E-03 0.49755971E+02</pdfrwt>
<pdfrwt beam="1">  1       -2 0.15404695E-01 0.49755971E+02</pdfrwt>
<totfact> 0.35709658E+05</totfact>
</mgrwt>
</event>
<event>
 4    1  0.4696545E-002  0.5265887E+02  0.7818608E-02  0.1431506E+00
         -2   -1    0    0  501    0 -0.00000000000E+00  0.00000000000E+00  0.87548022185E+02  0.87548022222E+02  0.25500000000E-02 0. -1.
          2   -1    0    0    0  501  0.00000000000E+00 -0.00000000000E+00 -0.79183872471E+01  0.79183876577E+01  0.25500000000E-02 0. -1.
          2    1    1    2    0  502 -0.16002554457E+02  0.18724059162E+02  0.56682494445E+02  0.61802729095E+02  0.25500000000E-02 0. -1.
         -2    1    1    2  502    0  0.16002554457E+02 -0.18724059162E+02  0.22947140493E+02  0.33663680785E+02  0.25500000000E-02 0. -1.
<mgrwt>
<rscale>  0 0.52658871E+02</rscale>
<asrwt>0</asrwt>
<pdfrwt beam="2">  1        2 0.12182134E-02 0.52658871E+02</pdfrwt>
<pdfrwt beam="1">  1       -2 0.13468927E-01 0.52658871E+02</pdfrwt>
<totfact> 0.32128428E+05</totfact>
</mgrwt>
</event>
<event>
 4    1  0.4696545E-002  0.5328285E+02  0.7818608E-02  0.1428398E+00
          2   -1    0    0    0  501  0.00000000000E+00  0.00000000000E+00  0.80088470314E+03  0.80088470314E+03  0.25500000000E-02 0. -1.
         -2   -1    0    0  501    0 -0.00000000000E+00 -0.00000000000E+00 -0.88622491112E+00  0.88622857976E+00  0.25500000000E-02 0. -1.
          2    1    1    2    0  502 -0.12939812838E+02  0.17606778350E+02  0.17064134133E+03  0.17203460343E+03  0.25500000000E-02 0.  1.
         -2    1    1    2  502    0  0.12939812838E+02 -0.17606778350E+02  0.62935713690E+03  0.62973632829E+03  0.25500000000E-02 0.  1.
<mgrwt>
<rscale>  0 0.53282847E+02</rscale>
<asrwt>0</asrwt>
<pdfrwt beam="1">  1        2 0.12321313E+00 0.53282847E+02</pdfrwt>
<pdfrwt beam="2">  1       -2 0.13634247E-03 0.53282847E+02</pdfrwt>
<totfact> 0.96527346E+05</totfact>
</mgrwt>
</event>
<event>
 4    1  0.4696545E-002  0.6665699E+02  0.7818608E-02  0.1371845E+00
          2   -1    0    0    0  501  0.00000000000E+00  0.00000000000E+00  0.16615100320E+01  0.16615119888E+01  0.25500000000E-02 0.  1.
         -2   -1    0    0  501    0 -0.00000000000E+00 -0.00000000000E+00 -0.66854117843E+03  0.66854117843E+03  0.25500000000E-02 0.  1.
          2    1    1    2    0  502  0.22246938229E+02 -0.22627846317E+02 -0.23098115619E+03  0.23315068134E+03  0.25500000000E-02 0. -1.
         -2    1    1    2  502    0 -0.22246938229E+02  0.22627846317E+02 -0.43589851221E+03  0.43705200908E+03  0.25500000000E-02 0. -1.
<mgrwt>
<rscale>  0 0.66656989E+02</rscale>
<asrwt>0</asrwt>
<pdfrwt beam="1">  1        2 0.25561761E-03 0.66656989E+02</pdfrwt>
<pdfrwt beam="2">  1       -2 0.10285227E+00 0.66656989E+02</pdfrwt>
<totfact> 0.63327635E+04</totfact>
</mgrwt>
</event>
<event>
 4    1  0.4696545E-002  0.6458353E+02  0.7818608E-02  0.1379545E+00
          2   -1    0    0    0  501  0.00000000000E+00  0.00000000000E+00  0.30595144069E+01  0.30595154696E+01  0.25500000000E-02 0.  1.
         -2   -1    0    0  501    0 -0.00000000000E+00 -0.00000000000E+00 -0.34082467447E+03  0.34082467448E+03  0.25500000000E-02 0.  1.
          2    1    1    2    0  502 -0.23939810853E+02  0.17490881650E+02 -0.10075364677E+03  0.10502543896E+03  0.25500000000E-02 0.  1.
         -2    1    1    2  502    0  0.23939810853E+02 -0.17490881650E+02 -0.23701151329E+03  0.23885875099E+03  0.25500000000E-02 0.  1.
<mgrwt>
<rscale>  0 0.64583533E+02</rscale>
<asrwt>0</asrwt>
<pdfrwt beam="1">  1        2 0.47069488E-03 0.64583533E+02</pdfrwt>
<pdfrwt beam="2">  1       -2 0.52434535E-01 0.64583533E+02</pdfrwt>
<totfact> 0.11407429E+05</totfact>
</mgrwt>
</event>
<event>
 4    1  0.4696545E-002  0.5376488E+02  0.7818608E-02  0.1426032E+00
         -2   -1    0    0  501    0 -0.00000000000E+00  0.00000000000E+00  0.10933706499E+01  0.10933736235E+01  0.25500000000E-02 0.  1.
          2   -1    0    0    0  501  0.00000000000E+00 -0.00000000000E+00 -0.66095106234E+03  0.66095106234E+03  0.25500000000E-02 0.  1.
          2    1    1    2    0  502 -0.20093103347E+02  0.38408554060E+01 -0.11516846066E+03  0.11697119008E+03  0.25500000000E-02 0.  1.
         -2    1    1    2  502    0  0.20093103347E+02 -0.38408554060E+01 -0.54468923103E+03  0.54507324588E+03  0.25500000000E-02 0.  1.
<mgrwt>
<rscale>  0 0.53764876E+02</rscale>
<asrwt>0</asrwt>
<pdfrwt beam="2">  1        2 0.10168446E+00 0.53764876E+02</pdfrwt>
<pdfrwt beam="1">  1       -2 0.16821163E-03 0.53764876E+02</pdfrwt>
<totfact> 0.90688191E+05</totfact>
</mgrwt>
</event>
<event>
 4    1  0.4696545E-002  0.1005463E+03  0.7818608E-02  0.1279151E+00
          2   -1    0    0    0  501  0.00000000000E+00  0.00000000000E+00  0.59264116920E+01  0.59264122406E+01  0.25500000000E-02 0. -1.
         -2   -1    0    0  501    0 -0.00000000000E+00 -0.00000000000E+00 -0.42646179808E+03  0.42646179809E+03  0.25500000000E-02 0. -1.
          2    1    1    2    0  502  0.30832496294E+02  0.35392730979E+02 -0.13284871730E+03  0.14089737374E+03  0.25500000000E-02 0.  1.
         -2    1    1    2  502    0 -0.30832496294E+02 -0.35392730979E+02 -0.28768666909E+03  0.29149083658E+03  0.25500000000E-02 0.  1.
<mgrwt>
<rscale>  0 0.10054627E+03</rscale>
<asrwt>0</asrwt>
<pdfrwt beam="1">  1        2 0.91175602E-03 0.10054627E+03</pdfrwt>
<pdfrwt beam="2">  1       -2 0.65609483E-01 0.10054627E+03</pdfrwt>
<totfact> 0.31689274E+04</totfact>
</mgrwt>
</event>
<event>
 4    1  0.4696545E-002  0.5020317E+02  0.7818608E-02  0.1444249E+00
         -2   -1    0    0  501    0 -0.00000000000E+00  0.00000000000E+00  0.54764631063E+02  0.54764631123E+02  0.25500000000E-02 0.  1.
          2   -1    0    0    0  501  0.00000000000E+00 -0.00000000000E+00 -0.11505412620E+02  0.11505412903E+02  0.25500000000E-02 0.  1.
          2    1    1    2    0  502  0.24091895026E+02 -0.36740892986E+01  0.13690561713E+02  0.27952635379E+02  0.25500000000E-02 0.  1.
         -2    1    1    2  502    0 -0.24091895026E+02  0.36740892986E+01  0.29568656730E+02  0.38317408647E+02  0.25500000000E-02 0.  1.
<mgrwt>
<rscale>  0 0.50203175E+02</rscale>
<asrwt>0</asrwt>
<pdfrwt beam="2">  1        2 0.17700635E-02 0.50203175E+02</pdfrwt>
<pdfrwt beam="1">  1       -2 0.84253280E-02 0.50203175E+02</pdfrwt>
<totfact> 0.39726028E+05</totfact>
</mgrwt>
</event>
<event>
 4    1  0.4696545E-002  0.4511889E+02  0.7818608E-02  0.1473601E+00
         -2   -1    0    0  501    0 -0.00000000000E+00  0.00000000000E+00  0.21159296831E+00  0.21160833334E+00  0.25500000000E-02 0. -1.
          2   -1    0    0    0  501  0.00000000000E+00 -0.00000000000E+00 -0.24051374474E+04  0.24051374474E+04  0.25500000000E-02 0. -1.
          2    1    1    2    0  502  0.18203550753E+02  0.13274670332E+02 -0.11406927293E+04  0.11409151980E+04  0.25500000000E-02 0.  1.
         -2    1    1    2  502    0 -0.18203550753E+02 -0.13274670332E+02 -0.12642331251E+04  0.12644338578E+04  0.25500000000E-02 0.  1.
<mgrwt>
<rscale>  0 0.45118894E+02</rscale>
<asrwt>0</asrwt>
<pdfrwt beam="2">  1        2 0.36999926E+00 0.45118894E+02</pdfrwt>
<pdfrwt beam="1">  1       -2 0.32555872E-04 0.45118894E+02</pdfrwt>
<totfact> 0.96164281E+05</totfact>
</mgrwt>
</event>
<event>
 4    1  0.4696545E-002  0.7919493E+02  0.7818608E-02  0.1331352E+00
         -2   -1    0    0  501    0 -0.00000000000E+00  0.00000000000E+00  0.29537985730E+01  0.29537996737E+01  0.25500000000E-02 0. -1.
          2   -1    0    0    0  501  0.00000000000E+00 -0.00000000000E+00 -0.53082797769E+03  0.53082797769E+03  0.25500000000E-02 0. -1.
          2    1    1    2    0  502 -0.23732632896E+02  0.22787041649E+02 -0.41244462670E+03  0.41375482744E+03  0.25500000000E-02 0. -1.
         -2    1    1    2  502    0  0.23732632896E+02 -0.22787041649E+02 -0.11542955241E+03  0.12002694992E+03  0.25500000000E-02 0. -1.
<mgrwt>
<rscale>  0 0.79194930E+02</rscale>
<asrwt>0</asrwt>
<pdfrwt beam="2">  1        2 0.81665767E-01 0.79194930E+02</pdfrwt>
<pdfrwt beam="1">  1       -2 0.45443106E-03 0.79194930E+02</pdfrwt>
<totfact> 0.31794423E+05</totfact>
</mgrwt>
</event>
<event>
 4    1  0.4696545E-002  0.6135511E+02  0.7818608E-02  0.1392231E+00
         -2   -1    0    0  501    0 -0.00000000000E+00  0.00000000000E+00  0.25596365144E+01  0.25596377846E+01  0.25500000000E-02 0.  1.
          2   -1    0    0    0  501  0.00000000000E+00 -0.00000000000E+00 -0.36767413964E+03  0.36767413965E+03  0.25500000000E-02 0.  1.
          2    1    1    2    0  502  0.16220016918E+02  0.25566424241E+02 -0.15276148975E+03  0.15573311708E+03  0.25500000000E-02 0. -1.
         -2    1    1    2  502    0 -0.16220016918E+02 -0.25566424241E+02 -0.21235301338E+03  0.21450066036E+03  0.25500000000E-02 0. -1.
<mgrwt>
<rscale>  0 0.61355110E+02</rscale>
<asrwt>0</asrwt>
<pdfrwt beam="2">  1        2 0.56565211E-01 0.61355110E+02</pdfrwt>
<pdfrwt beam="1">  1       -2 0.39379062E-03 0.61355110E+02</pdfrwt>
<totfact> 0.54263067E+05</totfact>
</mgrwt>
</event>
<event>
 4    1  0.4696545E-002  0.6386039E+02  0.7818608E-02  0.1382310E+00
          2   -1    0    0    0  501  0.00000000000E+00  0.00000000000E+00  0.42251727890E+03  0.42251727891E+03  0.25500000000E-02 0.  1.
         -2   -1    0    0  501    0 -0.00000000000E+00 -0.00000000000E+00 -0.24130071578E+01  0.24130085052E+01  0.25500000000E-02 0.  1.
          2    1    1    2    0  502 -0.76007509287E+01  0.28928532718E+02  0.13568554432E+03  0.13894314795E+03  0.25500000000E-02 0.  1.
         -2    1    1    2  502    0  0.76007509287E+01 -0.28928532718E+02  0.28441872743E+03  0.28598713946E+03  0.25500000000E-02 0.  1.
<mgrwt>
<rscale>  0 0.63860395E+02</rscale>
<asrwt>0</asrwt>
<pdfrwt beam="1">  1        2 0.65002674E-01 0.63860395E+02</pdfrwt>
<pdfrwt beam="2">  1       -2 0.37123188E-03 0.63860395E+02</pdfrwt>
<totfact> 0.51413648E+05</totfact>
</mgrwt>
</event>
<event>
 4    1  0.4696545E-002  0.6271238E+02  0.7818608E-02  0.1386789E+00
          2   -1    0    0    0  501  0.00000000000E+00  0.00000000000E+00  0.11638420549E+04  0.11638420549E+04  0.25500000000E-02 0.  1.
         -2   -1    0    0  501    0 -0.00000000000E+00 -0.00000000000E+00 -0.84479541586E+00  0.84479926442E+00  0.25500000000E-02 0.  1.
          2    1    1    2    0  502 -0.13309755245E+02 -0.24817686544E+02  0.32540625414E+03  0.32662256106E+03  0.25500000000E-02 0. -1.
         -2    1    1    2  502    0  0.13309755245E+02  0.24817686544E+02  0.83759100535E+03  0.83806429312E+03  0.25500000000E-02 0. -1.
<mgrwt>
<rscale>  0 0.62712381E+02</rscale>
<asrwt>0</asrwt>
<pdfrwt beam="1">  1        2 0.17905294E+00 0.62712381E+02</pdfrwt>
<pdfrwt beam="2">  1       -2 0.12996859E-03 0.62712381E+02</pdfrwt>
<totfact> 0.65567268E+05</totfact>
</mgrwt>
</event>
<event>
 4    1  0.4696545E-002  0.4546725E+02  0.7818608E-02  0.1471446E+00
          2   -1    0    0    0  501  0.00000000000E+00  0.00000000000E+00  0.86339563535E+01  0.86339567300E+01  0.25500000000E-02 0.  1.
         -2   -1    0    0  501    0 -0.00000000000E+00 -0.00000000000E+00 -0.59858726235E+02  0.59858726290E+02  0.25500000000E-02 0.  1.
          2    1    1    2    0  502 -0.78720763040E+01 -0.21318899923E+02 -0.24717924304E+02  0.33577386254E+02  0.25500000000E-02 0. -1.
         -2    1    1    2  502    0  0.78720763040E+01  0.21318899923E+02 -0.26506845578E+02  0.34915296766E+02  0.25500000000E-02 0. -1.
<mgrwt>
<rscale>  0 0.45467247E+02</rscale>
<asrwt>0</asrwt>
<pdfrwt beam="1">  1        2 0.13283011E-02 0.45467247E+02</pdfrwt>
<pdfrwt beam="2">  1       -2 0.92090346E-02 0.45467247E+02</pdfrwt>
<totfact> 0.49600131E+05</totfact>
</mgrwt>
</event>
<event>
 4    1  0.4696545E-002  0.4448081E+02  0.7818608E-02  0.1477609E+00
          2   -1    0    0    0  501  0.00000000000E+00  0.00000000000E+00  0.11172588748E+03  0.11172588751E+03  0.25500000000E-02 0.  1.
         -2   -1    0    0  501    0 -0.00000000000E+00 -0.00000000000E+00 -0.44272241178E+01  0.44272248521E+01  0.25500000000E-02 0.  1.
          2    1    1    2    0  502  0.15764393941E+02  0.14887810323E+02  0.66567411282E+02  0.70009879759E+02  0.25500000000E-02 0.  1.
         -2    1    1    2  502    0 -0.15764393941E+02 -0.14887810323E+02  0.40731252085E+02  0.46143232607E+02  0.25500000000E-02 0.  1.
<mgrwt>
<rscale>  0 0.44480809E+02</rscale>
<asrwt>0</asrwt>
<pdfrwt beam="1">  1        2 0.17188599E-01 0.44480809E+02</pdfrwt>
<pdfrwt beam="2">  1       -2 0.68111143E-03 0.44480809E+02</pdfrwt>
<totfact> 0.82694200E+05</totfact>
</mgrwt>
</event>
<event>
 4    1  0.4696545E-002  0.4927669E+02  0.7818608E-02  0.1449282E+00
         -2   -1    0    0  501    0 -0.00000000000E+00  0.00000000000E+00  0.11091258001E+01  0.11091287315E+01  0.25500000000E-02 0.  1.
          2   -1    0    0    0  501  0.00000000000E+00 -0.00000000000E+00 -0.54732039856E+03  0.54732039857E+03  0.25500000000E-02 0.  1.
          2    1    1    2    0  502 -0.17889611941E+02 -0.15409054503E+02 -0.19474602409E+03  0.19617209558E+03  0.25500000000E-02 0.  1.
         -2    1    1    2  502    0  0.17889611941E+02  0.15409054503E+02 -0.35146524867E+03  0.35225743172E+03  0.25500000000E-02 0.  1.
<mgrwt>
<rscale>  0 0.49276687E+02</rscale>
<asrwt>0</asrwt>
<pdfrwt beam="2">  1        2 0.84202923E-01 0.49276687E+02</pdfrwt>
<pdfrwt beam="1">  1       -2 0.17063540E-03 0.49276687E+02</pdfrwt>
<totfact> 0.10698912E+06</totfact>
</mgrwt>
</event>
<event>
 4    1  0.4696545E-002  0.4105319E+02  0.7818608E-02  0.1500601E+00
         -2   -1    0    0  501    0 -0.00000000000E+00  0.00000000000E+00  0.62555954681E+03  0.62555954681E+03  0.25500000000E-02 0.  1.
          2   -1    0    0    0  501  0.00000000000E+00 -0.00000000000E+00 -0.67354038881E+00  0.67354521589E+00  0.25500000000E-02 0.  1.
          2    1    1    2    0  502  0.19745176246E+02  0.51768101373E+01  0.27947920548E+03  0.28022365648E+03  0.25500000000E-02 0.  1.
         -2    1    1    2  502    0 -0.19745176246E+02 -0.51768101373E+01  0.34540680094E+03  0.34600943555E+03  0.25500000000E-02 0.  1.
<mgrwt>
<rscale>  0 0.41053192E+02</rscale>
<asrwt>0</asrwt>
<pdfrwt beam="2">  1        2 0.10362159E-03 0.41053192E+02</pdfrwt>
<pdfrwt beam="1">  1       -2 0.96240283E-01 0.41053192E+02</pdfrwt>
<totfact> 0.22201549E+05</totfact>
</mgrwt>
</event>
<event>
 4    1  0.4696545E-002  0.5647168E+02  0.7818608E-02  0.1413265E+00
          2   -1    0    0    0  501  0.00000000000E+00  0.00000000000E+00  0.22454919286E+04  0.22454919286E+04  0.25500000000E-02 0.  1.
         -2   -1    0    0  501    0 -0.00000000000E+00 -0.00000000000E+00 -0.35504572783E+00  0.35505488498E+00  0.25500000000E-02 0.  1.
          2    1    1    2    0  502  0.51602748294E+01  0.22970597839E+02  0.17424945282E+04  0.17426535679E+04  0.25500000000E-02 0. -1.
         -2    1    1    2  502    0 -0.51602748294E+01 -0.22970597839E+02  0.50264235463E+03  0.50319341557E+03  0.25500000000E-02 0. -1.
<mgrwt>
<rscale>  0 0.56471678E+02</rscale>
<asrwt>0</asrwt>
<pdfrwt beam="1">  1        2 0.34546080E+00 0.56471678E+02</pdfrwt>
<pdfrwt beam="2">  1       -2 0.54623044E-04 0.56471678E+02</pdfrwt>
<totfact> 0.59989974E+05</totfact>
</mgrwt>
</event>
<event>
 4    1  0.4696545E-002  0.5707816E+02  0.7818608E-02  0.1410519E+00
          2   -1    0    0    0  501  0.00000000000E+00  0.00000000000E+00  0.39256083186E+01  0.39256091468E+01  0.25500000000E-02 0. -1.
         -2   -1    0    0  501    0 -0.00000000000E+00 -0.00000000000E+00 -0.20747840116E+03  0.20747840118E+03  0.25500000000E-02 0. -1.
          2    1    1    2    0  502  0.26320035729E+02  0.11024679530E+02 -0.10339583817E+03  0.10726130336E+03  0.25500000000E-02 0. -1.
         -2    1    1    2  502    0 -0.26320035729E+02 -0.11024679530E+02 -0.10015695467E+03  0.10414270697E+03  0.25500000000E-02 0. -1.
<mgrwt>
<rscale>  0 0.57078158E+02</rscale>
<asrwt>0</asrwt>
<pdfrwt beam="1">  1        2 0.60393997E-03 0.57078158E+02</pdfrwt>
<pdfrwt beam="2">  1       -2 0.31919746E-01 0.57078158E+02</pdfrwt>
<totfact> 0.20014854E+05</totfact>
</mgrwt>
</event>
<event>
 4    1  0.4696545E-002  0.4349314E+02  0.7818608E-02  0.1483974E+00
         -2   -1    0    0  501    0 -0.00000000000E+00  0.00000000000E+00  0.16039184790E+01  0.16039205061E+01  0.25500000000E-02 0.  1.
          2   -1    0    0    0  501  0.00000000000E+00 -0.00000000000E+00 -0.29484858546E+03  0.29484858547E+03  0.25500000000E-02 0.  1.
          2    1    1    2    0  502  0.18762455411E+02  0.70583049806E+01 -0.20408147194E+03  0.20506364036E+03  0.25500000000E-02 0.  1.
         -2    1    1    2  502    0 -0.18762455411E+02 -0.70583049806E+01 -0.89163195034E+02  0.91388865610E+02  0.25500000000E-02 0.  1.
<mgrwt>
<rscale>  0 0.43493144E+02</rscale>
<asrwt>0</asrwt>
<pdfrwt beam="2">  1        2 0.45361278E-01 0.43493144E+02</pdfrwt>
<pdfrwt beam="1">  1       -2 0.24675708E-03 0.43493144E+02</pdfrwt>
<totfact> 0.11862924E+06</totfact>
</mgrwt>
</event>
<event>
 4    1  0.4696545E-002  0.4792187E+02  0.7818608E-02  0.1456884E+00
         -2   -1    0    0  501    0 -0.00000000000E+00  0.00000000000E+00  0.42298341443E+01  0.42298349130E+01  0.25500000000E-02 0.  1.
          2   -1    0    0    0  501  0.00000000000E+00 -0.00000000000E+00 -0.13573258685E+03  0.13573258687E+03  0.25500000000E-02 0.  1.
          2    1    1    2    0  502 -0.65784046035E+01 -0.20009421856E+02 -0.32390326953E+02  0.38636584435E+02  0.25500000000E-02 0. -1.
         -2    1    1    2  502    0  0.65784046035E+01  0.20009421856E+02 -0.99112425751E+02  0.10132583735E+03  0.25500000000E-02 0. -1.
<mgrwt>
<rscale>  0 0.47921869E+02</rscale>
<asrwt>0</asrwt>
<pdfrwt beam="2">  1        2 0.20881933E-01 0.47921869E+02</pdfrwt>
<pdfrwt beam="1">  1       -2 0.65074388E-03 0.47921869E+02</pdfrwt>
<totfact> 0.72504369E+05</totfact>
</mgrwt>
</event>
<event>
 4    1  0.4696545E-002  0.4746147E+02  0.7818608E-02  0.1459535E+00
         -2   -1    0    0  501    0 -0.00000000000E+00  0.00000000000E+00  0.57563745389E+03  0.57563745389E+03  0.25500000000E-02 0.  1.
          2   -1    0    0    0  501  0.00000000000E+00 -0.00000000000E+00 -0.97830103415E+00  0.97830435751E+00  0.25500000000E-02 0.  1.
          2    1    1    2    0  502  0.20213912855E+02 -0.12376472570E+02  0.27311808173E+03  0.27414460768E+03  0.25500000000E-02 0. -1.
         -2    1    1    2  502    0 -0.20213912855E+02  0.12376472570E+02  0.30154107113E+03  0.30247115057E+03  0.25500000000E-02 0. -1.
<mgrwt>
<rscale>  0 0.47461465E+02</rscale>
<asrwt>0</asrwt>
<pdfrwt beam="2">  1        2 0.15050761E-03 0.47461465E+02</pdfrwt>
<pdfrwt beam="1">  1       -2 0.88559904E-01 0.47461465E+02</pdfrwt>
<totfact> 0.16802132E+05</totfact>
</mgrwt>
</event>
<event>
 4    1  0.4696545E-002  0.6088060E+02  0.7818608E-02  0.1394173E+00
         -2   -1    0    0  501    0 -0.00000000000E+00  0.00000000000E+00  0.52236894622E+00  0.52237517024E+00  0.25500000000E-02 0.  1.
          2   -1    0    0    0  501  0.00000000000E+00 -0.00000000000E+00 -0.17738542860E+04  0.17738542860E+04  0.25500000000E-02 0.  1.
          2    1    1    2    0  502  0.20925397253E+02 -0.15532439000E+02 -0.42816572032E+03  0.42895805503E+03  0.25500000000E-02 0. -1.
         -2    1    1    2  502    0 -0.20925397253E+02  0.15532439000E+02 -0.13451661968E+04  0.13454186062E+04  0.25500000000E-02 0. -1.
<mgrwt>
<rscale>  0 0.60880602E+02</rscale>
<asrwt>0</asrwt>
<pdfrwt beam="2">  1        2 0.27289584E+00 0.60880602E+02</pdfrwt>
<pdfrwt beam="1">  1       -2 0.80366353E-04 0.60880602E+02</pdfrwt>
<totfact> 0.61547201E+05</totfact>
</mgrwt>
</event>
<event>
 4    1  0.4696545E-002  0.4153354E+02  0.7818608E-02  0.1497220E+00
          2   -1    0    0    0  501  0.00000000000E+00  0.00000000000E+00  0.64319029755E+03  0.64319029756E+03  0.25500000000E-02 0.  1.
         -2   -1    0    0  501    0 -0.00000000000E+00 -0.00000000000E+00 -0.67049699066E+00  0.67050183966E+00  0.25500000000E-02 0.  1.
          2    1    1    2    0  502 -0.12741217355E+02 -0.16384596264E+02  0.31068767192E+03  0.31138019061E+03  0.25500000000E-02 0. -1.
         -2    1    1    2  502    0  0.12741217355E+02  0.16384596264E+02  0.33183212865E+03  0.33248060879E+03  0.25500000000E-02 0. -1.
<mgrwt>
<rscale>  0 0.41533539E+02</rscale>
<asrwt>0</asrwt>
<pdfrwt beam="1">  1        2 0.98952126E-01 0.41533539E+02</pdfrwt>
<pdfrwt beam="2">  1       -2 0.10315399E-03 0.41533539E+02</pdfrwt>
<totfact> 0.16964696E+06</totfact>
</mgrwt>
</event>
<event>
 4    1  0.4696545E-002  0.4185774E+02  0.7818608E-02  0.1494969E+00
          2   -1    0    0    0  501  0.00000000000E+00  0.00000000000E+00  0.63349708632E+03  0.63349708633E+03  0.25500000000E-02 0. -1.
         -2   -1    0    0  501    0 -0.00000000000E+00 -0.00000000000E+00 -0.69142563406E+00  0.69143033629E+00  0.25500000000E-02 0. -1.
          2    1    1    2    0  502  0.61219722364E+00 -0.20897295032E+02  0.33113822970E+03  0.33179752696E+03  0.25500000000E-02 0. -1.
         -2    1    1    2  502    0 -0.61219722364E+00  0.20897295032E+02  0.30166743099E+03  0.30239098970E+03  0.25500000000E-02 0. -1.
<mgrwt>
<rscale>  0 0.41857741E+02</rscale>
<asrwt>0</asrwt>
<pdfrwt beam="1">  1        2 0.97461334E-01 0.41857741E+02</pdfrwt>
<pdfrwt beam="2">  1       -2 0.10637327E-03 0.41857741E+02</pdfrwt>
<totfact> 0.16585812E+06</totfact>
</mgrwt>
</event>
<event>
 4    1  0.4696545E-002  0.4986727E+02  0.7818608E-02  0.1446059E+00
         -2   -1    0    0  501    0 -0.00000000000E+00  0.00000000000E+00  0.26923592844E+03  0.26923592845E+03  0.25500000000E-02 0. -1.
          2   -1    0    0    0  501  0.00000000000E+00 -0.00000000000E+00 -0.23090753353E+01  0.23090767433E+01  0.25500000000E-02 0. -1.
          2    1    1    2    0  502  0.13703008738E+02 -0.20632948276E+02  0.14905200950E+03  0.15109597131E+03  0.25500000000E-02 0.  1.
         -2    1    1    2  502    0 -0.13703008738E+02  0.20632948276E+02  0.11787484360E+03  0.12044903389E+03  0.25500000000E-02 0.  1.
<mgrwt>
<rscale>  0 0.49867273E+02</rscale>
<asrwt>0</asrwt>
<pdfrwt beam="2">  1        2 0.35524259E-03 0.49867273E+02</pdfrwt>
<pdfrwt beam="1">  1       -2 0.41420899E-01 0.49867273E+02</pdfrwt>
<totfact> 0.24756816E+05</totfact>
</mgrwt>
</event>
<event>
 4    1  0.4696545E-002  0.5570336E+02  0.7818608E-02  0.1416802E+00
          2   -1    0    0    0  501  0.00000000000E+00  0.00000000000E+00  0.26508511328E+04  0.26508511328E+04  0.25500000000E-02 0. -1.
         -2   -1    0    0  501    0 -0.00000000000E+00 -0.00000000000E+00 -0.29262345287E+00  0.29263456335E+00  0.25500000000E-02 0. -1.
          2    1    1    2    0  502  0.26721035600E+02  0.68625129398E+01  0.15071860388E+04  0.15074385107E+04  0.25500000000E-02 0.  1.
         -2    1    1    2  502    0 -0.26721035600E+02 -0.68625129398E+01  0.11433724706E+04  0.11437052567E+04  0.25500000000E-02 0.  1.
<mgrwt>
<rscale>  0 0.55703355E+02</rscale>
<asrwt>0</asrwt>
<pdfrwt beam="1">  1        2 0.40781067E+00 0.55703355E+02</pdfrwt>
<pdfrwt beam="2">  1       -2 0.45021237E-04 0.55703355E+02</pdfrwt>
<totfact> 0.48267268E+05</totfact>
</mgrwt>
</event>
<event>
 4    1  0.4696545E-002  0.4411380E+02  0.7818608E-02  0.1479951E+00
          2   -1    0    0    0  501  0.00000000000E+00  0.00000000000E+00  0.24485079323E+03  0.24485079324E+03  0.25500000000E-02 0. -1.
         -2   -1    0    0  501    0 -0.00000000000E+00 -0.00000000000E+00 -0.19869512326E+01  0.19869528689E+01  0.25500000000E-02 0. -1.
          2    1    1    2    0  502 -0.20722679208E+02 -0.33056545684E+01  0.15944411714E+03  0.16081910112E+03  0.25500000000E-02 0. -1.
         -2    1    1    2  502    0  0.20722679208E+02  0.33056545684E+01  0.83419724851E+02  0.86018644993E+02  0.25500000000E-02 0. -1.
<mgrwt>
<rscale>  0 0.44113798E+02</rscale>
<asrwt>0</asrwt>
<pdfrwt beam="1">  1        2 0.37669340E-01 0.44113798E+02</pdfrwt>
<pdfrwt beam="2">  1       -2 0.30568504E-03 0.44113798E+02</pdfrwt>
<totfact> 0.10750608E+06</totfact>
</mgrwt>
</event>
<event>
 4    1  0.4696545E-002  0.4252899E+02  0.7818608E-02  0.1490385E+00
         -2   -1    0    0  501    0 -0.00000000000E+00  0.00000000000E+00  0.70866581357E+00  0.70867040140E+00  0.25500000000E-02 0. -1.
          2   -1    0    0    0  501  0.00000000000E+00 -0.00000000000E+00 -0.63806835938E+03  0.63806835939E+03  0.25500000000E-02 0. -1.
          2    1    1    2    0  502  0.11194458210E+02  0.17997079155E+02 -0.29280416181E+03  0.29357024361E+03  0.25500000000E-02 0. -1.
         -2    1    1    2  502    0 -0.11194458210E+02 -0.17997079155E+02 -0.34455553175E+03  0.34520678617E+03  0.25500000000E-02 0. -1.
<mgrwt>
<rscale>  0 0.42528988E+02</rscale>
<asrwt>0</asrwt>
<pdfrwt beam="2">  1        2 0.98163904E-01 0.42528988E+02</pdfrwt>
<pdfrwt beam="1">  1       -2 0.10902637E-03 0.42528988E+02</pdfrwt>
<totfact> 0.15988436E+06</totfact>
</mgrwt>
</event>
<event>
 4    1  0.4696545E-002  0.9203665E+02  0.7818608E-02  0.1297993E+00
          2   -1    0    0    0  501  0.00000000000E+00  0.00000000000E+00  0.13107607329E+04  0.13107607329E+04  0.25500000000E-02 0.  1.
         -2   -1    0    0  501    0 -0.00000000000E+00 -0.00000000000E+00 -0.16156151825E+01  0.16156171949E+01  0.25500000000E-02 0.  1.
          2    1    1    2    0  502  0.46738458232E+01 -0.19627816279E+02  0.64818978348E+02  0.67886640565E+02  0.25500000000E-02 0. -1.
         -2    1    1    2  502    0 -0.46738458232E+01  0.19627816279E+02  0.12443261393E+04  0.12444897095E+04  0.25500000000E-02 0. -1.
<mgrwt>
<rscale>  0 0.92036651E+02</rscale>
<asrwt>0</asrwt>
<pdfrwt beam="1">  1        2 0.20165611E+00 0.92036651E+02</pdfrwt>
<pdfrwt beam="2">  1       -2 0.24855558E-03 0.92036651E+02</pdfrwt>
<totfact> 0.23930145E+05</totfact>
</mgrwt>
</event>
<event>
 4    1  0.4696545E-002  0.1050144E+03  0.7818608E-02  0.1270091E+00
         -2   -1    0    0  501    0 -0.00000000000E+00  0.00000000000E+00  0.11925370772E+03  0.11925370775E+03  0.25500000000E-02 0.  1.
          2   -1    0    0    0  501  0.00000000000E+00 -0.00000000000E+00 -0.23118841009E+02  0.23118841150E+02  0.25500000000E-02 0.  1.
          2    1    1    2    0  502 -0.46537531089E+02  0.71166005011E+01  0.16544746522E+02  0.49901066587E+02  0.25500000000E-02 0. -1.
         -2    1    1    2  502    0  0.46537531089E+02 -0.71166005011E+01  0.79590120188E+02  0.92471482310E+02  0.25500000000E-02 0. -1.
<mgrwt>
<rscale>  0 0.10501443E+03</rscale>
<asrwt>0</asrwt>
<pdfrwt beam="2">  1        2 0.35567447E-02 0.10501443E+03</pdfrwt>
<pdfrwt beam="1">  1       -2 0.18346724E-01 0.10501443E+03</pdfrwt>
<totfact> 0.53023145E+04</totfact>
</mgrwt>
</event>
<event>
 4    1  0.4696545E-002  0.4149730E+02  0.7818608E-02  0.1497473E+00
         -2   -1    0    0  501    0 -0.00000000000E+00  0.00000000000E+00  0.34203069789E+01  0.34203079294E+01  0.25500000000E-02 0.  1.
          2   -1    0    0    0  501  0.00000000000E+00 -0.00000000000E+00 -0.12586775418E+03  0.12586775420E+03  0.25500000000E-02 0.  1.
          2    1    1    2    0  502 -0.18131057098E+02 -0.95141106114E+01 -0.71675028171E+02  0.74542358442E+02  0.25500000000E-02 0.  1.
         -2    1    1    2  502    0  0.18131057098E+02  0.95141106114E+01 -0.50772419026E+02  0.54745703690E+02  0.25500000000E-02 0.  1.
<mgrwt>
<rscale>  0 0.41497297E+02</rscale>
<asrwt>0</asrwt>
<pdfrwt beam="2">  1        2 0.19364266E-01 0.41497297E+02</pdfrwt>
<pdfrwt beam="1">  1       -2 0.52620125E-03 0.41497297E+02</pdfrwt>
<totfact> 0.10144948E+06</totfact>
</mgrwt>
</event>
<event>
 4    1  0.4696545E-002  0.5060415E+02  0.7818608E-02  0.1442110E+00
         -2   -1    0    0  501    0 -0.00000000000E+00  0.00000000000E+00  0.11433597434E+01  0.11433625870E+01  0.25500000000E-02 0.  1.
          2   -1    0    0    0  501  0.00000000000E+00 -0.00000000000E+00 -0.55992377925E+03  0.55992377926E+03  0.25500000000E-02 0.  1.
          2    1    1    2    0  502  0.12572312940E+02  0.16497335055E+02 -0.44005002854E+03  0.44053859393E+03  0.25500000000E-02 0.  1.
         -2    1    1    2  502    0 -0.12572312940E+02 -0.16497335055E+02 -0.11873039097E+03  0.12052854792E+03  0.25500000000E-02 0.  1.
<mgrwt>
<rscale>  0 0.50604154E+02</rscale>
<asrwt>0</asrwt>
<pdfrwt beam="2">  1        2 0.86141901E-01 0.50604154E+02</pdfrwt>
<pdfrwt beam="1">  1       -2 0.17590217E-03 0.50604154E+02</pdfrwt>
<totfact> 0.10084835E+06</totfact>
</mgrwt>
</event>
<event>
 4    1  0.4696545E-002  0.1430831E+03  0.7818608E-02  0.1209240E+00
         -2   -1    0    0  501    0 -0.00000000000E+00  0.00000000000E+00  0.53997862257E+03  0.53997862257E+03  0.25500000000E-02 0. -1.
          2   -1    0    0    0  501  0.00000000000E+00 -0.00000000000E+00 -0.94785172539E+01  0.94785175969E+01  0.25500000000E-02 0. -1.
          2    1    1    2    0  502 -0.58141691060E+02  0.15877188023E+02  0.11723551096E+03  0.13182073576E+03  0.25500000000E-02 0. -1.
         -2    1    1    2  502    0  0.58141691060E+02 -0.15877188023E+02  0.41326459435E+03  0.41763640441E+03  0.25500000000E-02 0. -1.
<mgrwt>
<rscale>  0 0.14308315E+03</rscale>
<asrwt>0</asrwt>
<pdfrwt beam="2">  1        2 0.14582332E-02 0.14308315E+03</pdfrwt>
<pdfrwt beam="1">  1       -2 0.83073647E-01 0.14308315E+03</pdfrwt>
<totfact> 0.10466694E+04</totfact>
</mgrwt>
</event>
<event>
 4    1  0.4696545E-002  0.4367319E+02  0.7818608E-02  0.1482799E+00
         -2   -1    0    0  501    0 -0.00000000000E+00  0.00000000000E+00  0.23278059436E+00  0.23279456095E+00  0.25500000000E-02 0. -1.
          2   -1    0    0    0  501  0.00000000000E+00 -0.00000000000E+00 -0.20483777254E+04  0.20483777254E+04  0.25500000000E-02 0. -1.
          2    1    1    2    0  502  0.44069786392E+00  0.21118260171E+02 -0.12838149666E+04  0.12839887241E+04  0.25500000000E-02 0. -1.
         -2    1    1    2  502    0 -0.44069786392E+00 -0.21118260171E+02 -0.76432997823E+03  0.76462179589E+03  0.25500000000E-02 0. -1.
<mgrwt>
<rscale>  0 0.43673190E+02</rscale>
<asrwt>0</asrwt>
<pdfrwt beam="2">  1        2 0.31512060E+00 0.43673190E+02</pdfrwt>
<pdfrwt beam="1">  1       -2 0.35815114E-04 0.43673190E+02</pdfrwt>
<totfact> 0.12592710E+06</totfact>
</mgrwt>
</event>
<event>
 4    1  0.4696545E-002  0.7508619E+02  0.7818608E-02  0.1343604E+00
          2   -1    0    0    0  501  0.00000000000E+00  0.00000000000E+00  0.12179578974E+02  0.12179579241E+02  0.25500000000E-02 0. -1.
         -2   -1    0    0  501    0 -0.00000000000E+00 -0.00000000000E+00 -0.11572517702E+03  0.11572517705E+03  0.25500000000E-02 0. -1.
          2    1    1    2    0  502 -0.35893233761E+02 -0.81432458834E+01 -0.39157309520E+02  0.53739478772E+02  0.25500000000E-02 0.  1.
         -2    1    1    2  502    0  0.35893233761E+02  0.81432458834E+01 -0.64388288528E+02  0.74165277519E+02  0.25500000000E-02 0.  1.
<mgrwt>
<rscale>  0 0.75086189E+02</rscale>
<asrwt>0</asrwt>
<pdfrwt beam="1">  1        2 0.18737815E-02 0.75086189E+02</pdfrwt>
<pdfrwt beam="2">  1       -2 0.17803873E-01 0.75086189E+02</pdfrwt>
<totfact> 0.12406934E+05</totfact>
</mgrwt>
</event>
<event>
 4    1  0.4696545E-002  0.4390849E+02  0.7818608E-02  0.1481273E+00
          2   -1    0    0    0  501  0.00000000000E+00  0.00000000000E+00  0.19479582709E+01  0.19479599399E+01  0.25500000000E-02 0. -1.
         -2   -1    0    0  501    0 -0.00000000000E+00 -0.00000000000E+00 -0.24743269919E+03  0.24743269921E+03  0.25500000000E-02 0. -1.
          2    1    1    2    0  502  0.21066790439E+02 -0.11955692935E+01 -0.15717271658E+03  0.15858279190E+03  0.25500000000E-02 0.  1.
         -2    1    1    2  502    0 -0.21066790439E+02  0.11955692935E+01 -0.88312024348E+02  0.90797867245E+02  0.25500000000E-02 0.  1.
<mgrwt>
<rscale>  0 0.43908486E+02</rscale>
<asrwt>0</asrwt>
<pdfrwt beam="1">  1        2 0.29968621E-03 0.43908486E+02</pdfrwt>
<pdfrwt beam="2">  1       -2 0.38066544E-01 0.43908486E+02</pdfrwt>
<totfact> 0.35223986E+05</totfact>
</mgrwt>
</event>
<event>
 4    1  0.4696545E-002  0.5164860E+02  0.7818608E-02  0.1436647E+00
         -2   -1    0    0  501    0 -0.00000000000E+00  0.00000000000E+00  0.25999650697E+02  0.25999650822E+02  0.25500000000E-02 0.  1.
          2   -1    0    0    0  501  0.00000000000E+00 -0.00000000000E+00 -0.25650135201E+02  0.25650135327E+02  0.25500000000E-02 0.  1.
          2    1    1    2    0  502  0.21417908289E+02  0.14334706381E+02 -0.14635572236E+01  0.25813806553E+02  0.25500000000E-02 0.  1.
         -2    1    1    2  502    0 -0.21417908289E+02 -0.14334706381E+02  0.18130727197E+01  0.25835979596E+02  0.25500000000E-02 0.  1.
<mgrwt>
<rscale>  0 0.51648604E+02</rscale>
<asrwt>0</asrwt>
<pdfrwt beam="2">  1        2 0.39461747E-02 0.51648604E+02</pdfrwt>
<pdfrwt beam="1">  1       -2 0.39999463E-02 0.51648604E+02</pdfrwt>
<totfact> 0.42028325E+05</totfact>
</mgrwt>
</event>
<event>
 4    1  0.4696545E-002  0.1218246E+03  0.7818608E-02  0.1240117E+00
          2   -1    0    0    0  501  0.00000000000E+00  0.00000000000E+00  0.23664044225E+03  0.23664044226E+03  0.25500000000E-02 0.  1.
         -2   -1    0    0  501    0 -0.00000000000E+00 -0.00000000000E+00 -0.15679098433E+02  0.15679098641E+02  0.25500000000E-02 0.  1.
          2    1    1    2    0  502 -0.32954428393E+02 -0.41665664848E+02  0.17221013120E+03  0.18021751100E+03  0.25500000000E-02 0.  1.
         -2    1    1    2  502    0  0.32954428393E+02  0.41665664848E+02  0.48751212622E+02  0.72102029905E+02  0.25500000000E-02 0.  1.
<mgrwt>
<rscale>  0 0.12182461E+03</rscale>
<asrwt>0</asrwt>
<pdfrwt beam="1">  1        2 0.36406223E-01 0.12182461E+03</pdfrwt>
<pdfrwt beam="2">  1       -2 0.24121689E-02 0.12182461E+03</pdfrwt>
<totfact> 0.74577283E+04</totfact>
</mgrwt>
</event>
<event>
 4    1  0.4696545E-002  0.5084487E+02  0.7818608E-02  0.1440837E+00
         -2   -1    0    0  501    0 -0.00000000000E+00  0.00000000000E+00  0.74521695169E+01  0.74521699532E+01  0.25500000000E-02 0. -1.
          2   -1    0    0    0  501  0.00000000000E+00 -0.00000000000E+00 -0.86726453936E+02  0.86726453974E+02  0.25500000000E-02 0. -1.
          2    1    1    2    0  502 -0.16646778314E+02 -0.11184727300E+02 -0.68575735429E+02  0.71448196962E+02  0.25500000000E-02 0. -1.
         -2    1    1    2  502    0  0.16646778314E+02  0.11184727300E+02 -0.10698548991E+02  0.22730426965E+02  0.25500000000E-02 0. -1.
<mgrwt>
<rscale>  0 0.50844872E+02</rscale>
<asrwt>0</asrwt>
<pdfrwt beam="2">  1        2 0.13342531E-01 0.50844872E+02</pdfrwt>
<pdfrwt beam="1">  1       -2 0.11464877E-02 0.50844872E+02</pdfrwt>
<totfact> 0.55354801E+05</totfact>
</mgrwt>
</event>
<event>
 4    1  0.4696545E-002  0.8509843E+02  0.7818608E-02  0.1315175E+00
         -2   -1    0    0  501    0 -0.00000000000E+00  0.00000000000E+00  0.37286750008E+01  0.37286758728E+01  0.25500000000E-02 0. -1.
          2   -1    0    0    0  501  0.00000000000E+00 -0.00000000000E+00 -0.48554393154E+03  0.48554393155E+03  0.25500000000E-02 0. -1.
          2    1    1    2    0  502  0.31706583714E+02 -0.28374753404E+02 -0.24114090811E+03  0.24486602796E+03  0.25500000000E-02 0.  1.
         -2    1    1    2  502    0 -0.31706583714E+02  0.28374753404E+02 -0.24067434844E+03  0.24440657946E+03  0.25500000000E-02 0.  1.
<mgrwt>
<rscale>  0 0.85098431E+02</rscale>
<asrwt>0</asrwt>
<pdfrwt beam="2">  1        2 0.74699016E-01 0.85098431E+02</pdfrwt>
<pdfrwt beam="1">  1       -2 0.57364276E-03 0.85098431E+02</pdfrwt>
<totfact> 0.25602633E+05</totfact>
</mgrwt>
</event>
<event>
 4    1  0.4696545E-002  0.4504477E+02  0.7818608E-02  0.1474062E+00
          2   -1    0    0    0  501  0.00000000000E+00  0.00000000000E+00  0.39687436917E+03  0.39687436918E+03  0.25500000000E-02 0.  1.
         -2   -1    0    0  501    0 -0.00000000000E+00 -0.00000000000E+00 -0.12781304865E+01  0.12781330303E+01  0.25500000000E-02 0.  1.
          2    1    1    2    0  502 -0.56428738710E+01  0.21564525597E+02  0.22628526742E+03  0.22738050278E+03  0.25500000000E-02 0. -1.
         -2    1    1    2  502    0  0.56428738710E+01 -0.21564525597E+02  0.16931097127E+03  0.17077199943E+03  0.25500000000E-02 0. -1.
<mgrwt>
<rscale>  0 0.45044766E+02</rscale>
<asrwt>0</asrwt>
<pdfrwt beam="1">  1        2 0.61057536E-01 0.45044766E+02</pdfrwt>
<pdfrwt beam="2">  1       -2 0.19663585E-03 0.45044766E+02</pdfrwt>
<totfact> 0.12049808E+06</totfact>
</mgrwt>
</event>
<event>
 4    1  0.4696545E-002  0.4147436E+02  0.7818608E-02  0.1497634E+00
         -2   -1    0    0  501    0 -0.00000000000E+00  0.00000000000E+00  0.43570289392E+00  0.43571035594E+00  0.25500000000E-02 0. -1.
          2   -1    0    0    0  501  0.00000000000E+00 -0.00000000000E+00 -0.98697286591E+03  0.98697286591E+03  0.25500000000E-02 0. -1.
          2    1    1    2    0  502 -0.89636077851E+01  0.18322958897E+02 -0.58220081282E+03  0.58255803448E+03  0.25500000000E-02 0. -1.
         -2    1    1    2  502    0  0.89636077851E+01 -0.18322958897E+02 -0.40433635020E+03  0.40485054179E+03  0.25500000000E-02 0. -1.
<mgrwt>
<rscale>  0 0.41474359E+02</rscale>
<asrwt>0</asrwt>
<pdfrwt beam="2">  1        2 0.15184019E+00 0.41474359E+02</pdfrwt>
<pdfrwt beam="1">  1       -2 0.67032579E-04 0.41474359E+02</pdfrwt>
<totfact> 0.18261757E+06</totfact>
</mgrwt>
</event>
<event>
 4    1  0.4696545E-002  0.5042565E+02  0.7818608E-02  0.1443059E+00
          2   -1    0    0    0  501  0.00000000000E+00  0.00000000000E+00  0.28531957530E+03  0.28531957531E+03  0.25500000000E-02 0. -1.
         -2   -1    0    0  501    0 -0.00000000000E+00 -0.00000000000E+00 -0.22279802038E+01  0.22279816631E+01  0.25500000000E-02 0. -1.
          2    1    1    2    0  502  0.21877215802E+02  0.42414860870E+01  0.74295155945E+02  0.77565282046E+02  0.25500000000E-02 0. -1.
         -2    1    1    2  502    0 -0.21877215802E+02 -0.42414860870E+01  0.20879643915E+03  0.20998227493E+03  0.25500000000E-02 0. -1.
<mgrwt>
<rscale>  0 0.50425651E+02</rscale>
<asrwt>0</asrwt>
<pdfrwt beam="1">  1        2 0.43895312E-01 0.50425651E+02</pdfrwt>
<pdfrwt beam="2">  1       -2 0.34276636E-03 0.50425651E+02</pdfrwt>
<totfact> 0.81389052E+05</totfact>
</mgrwt>
</event>
<event>
 4    1  0.4696545E-002  0.5289400E+02  0.7818608E-02  0.1430329E+00
          2   -1    0    0    0  501  0.00000000000E+00  0.00000000000E+00  0.33407357554E+03  0.33407357555E+03  0.25500000000E-02 0.  1.
         -2   -1    0    0  501    0 -0.00000000000E+00 -0.00000000000E+00 -0.20936814580E+01  0.20936830108E+01  0.25500000000E-02 0.  1.
          2    1    1    2    0  502 -0.82128399102E+01  0.24147466286E+02  0.12155010699E+03  0.12419734048E+03  0.25500000000E-02 0. -1.
         -2    1    1    2  502    0  0.82128399102E+01 -0.24147466286E+02  0.21042978709E+03  0.21196991808E+03  0.25500000000E-02 0. -1.
<mgrwt>
<rscale>  0 0.52894004E+02</rscale>
<asrwt>0</asrwt>
<pdfrwt beam="1">  1        2 0.51395939E-01 0.52894004E+02</pdfrwt>
<pdfrwt beam="2">  1       -2 0.32210493E-03 0.52894004E+02</pdfrwt>
<totfact> 0.76320683E+05</totfact>
</mgrwt>
</event>
<event>
 4    1  0.4696545E-002  0.5906239E+02  0.7818608E-02  0.1401809E+00
         -2   -1    0    0  501    0 -0.00000000000E+00  0.00000000000E+00  0.19940286006E+01  0.19940302310E+01  0.25500000000E-02 0.  1.
          2   -1    0    0    0  501  0.00000000000E+00 -0.00000000000E+00 -0.43735139985E+03  0.43735139985E+03  0.25500000000E-02 0.  1.
          2    1    1    2    0  502 -0.24471539809E+02 -0.11260822653E+02 -0.30769243875E+03  0.30886938867E+03  0.25500000000E-02 0. -1.
         -2    1    1    2  502    0  0.24471539809E+02  0.11260822653E+02 -0.12766493250E+03  0.13047604141E+03  0.25500000000E-02 0. -1.
<mgrwt>
<rscale>  0 0.59062393E+02</rscale>
<asrwt>0</asrwt>
<pdfrwt beam="2">  1        2 0.67284755E-01 0.59062393E+02</pdfrwt>
<pdfrwt beam="1">  1       -2 0.30677410E-03 0.59062393E+02</pdfrwt>
<totfact> 0.63425049E+05</totfact>
</mgrwt>
</event>
<event>
 4    1  0.4696545E-002  0.5937559E+02  0.7818608E-02  0.1400471E+00
         -2   -1    0    0  501    0 -0.00000000000E+00  0.00000000000E+00  0.73333243655E+00  0.73333687007E+00  0.25500000000E-02 0. -1.
          2   -1    0    0    0  501  0.00000000000E+00 -0.00000000000E+00 -0.12018592938E+04  0.12018592938E+04  0.25500000000E-02 0. -1.
          2    1    1    2    0  502  0.69417591508E+01 -0.25583385318E+02 -0.87129107932E+03  0.87169423684E+03  0.25500000000E-02 0.  1.
         -2    1    1    2  502    0 -0.69417591508E+01  0.25583385318E+02 -0.32983488202E+03  0.33089839382E+03  0.25500000000E-02 0.  1.
<mgrwt>
<rscale>  0 0.59375587E+02</rscale>
<asrwt>0</asrwt>
<pdfrwt beam="2">  1        2 0.18489985E+00 0.59375587E+02</pdfrwt>
<pdfrwt beam="1">  1       -2 0.11282168E-03 0.59375587E+02</pdfrwt>
<totfact> 0.75049453E+05</totfact>
</mgrwt>
</event>
<event>
 4    1  0.4696545E-002  0.4502456E+02  0.7818608E-02  0.1474188E+00
         -2   -1    0    0  501    0 -0.00000000000E+00  0.00000000000E+00  0.11968912432E+02  0.11968912703E+02  0.25500000000E-02 0. -1.
          2   -1    0    0    0  501  0.00000000000E+00 -0.00000000000E+00 -0.42343263433E+02  0.42343263510E+02  0.25500000000E-02 0. -1.
          2    1    1    2    0  502  0.21598119070E+02  0.35642004228E+01 -0.88475470846E+01  0.23610619813E+02  0.25500000000E-02 0. -1.
         -2    1    1    2  502    0 -0.21598119070E+02 -0.35642004228E+01 -0.21526803917E+02  0.30701556401E+02  0.25500000000E-02 0. -1.
<mgrwt>
<rscale>  0 0.45024563E+02</rscale>
<asrwt>0</asrwt>
<pdfrwt beam="2">  1        2 0.65143482E-02 0.45024563E+02</pdfrwt>
<pdfrwt beam="1">  1       -2 0.18413712E-02 0.45024563E+02</pdfrwt>
<totfact> 0.65100531E+05</totfact>
</mgrwt>
</event>
<event>
 4    1  0.4696545E-002  0.4896461E+02  0.7818608E-02  0.1451008E+00
         -2   -1    0    0  501    0 -0.00000000000E+00  0.00000000000E+00  0.17169332310E+02  0.17169332499E+02  0.25500000000E-02 0. -1.
          2   -1    0    0    0  501  0.00000000000E+00 -0.00000000000E+00 -0.34910103892E+02  0.34910103985E+02  0.25500000000E-02 0. -1.
          2    1    1    2    0  502  0.20843806007E+02  0.12682198146E+02 -0.67217864898E+01  0.25307801540E+02  0.25500000000E-02 0.  1.
         -2    1    1    2  502    0 -0.20843806007E+02 -0.12682198146E+02 -0.11018985092E+02  0.26771634945E+02  0.25500000000E-02 0.  1.
<mgrwt>
<rscale>  0 0.48964607E+02</rscale>
<asrwt>0</asrwt>
<pdfrwt beam="2">  1        2 0.53707852E-02 0.48964607E+02</pdfrwt>
<pdfrwt beam="1">  1       -2 0.26414358E-02 0.48964607E+02</pdfrwt>
<totfact> 0.50814010E+05</totfact>
</mgrwt>
</event>
<event>
 4    1  0.4696545E-002  0.6242475E+02  0.7818608E-02  0.1387929E+00
          2   -1    0    0    0  501  0.00000000000E+00  0.00000000000E+00  0.70504841523E+02  0.70504841570E+02  0.25500000000E-02 0.  1.
         -2   -1    0    0  501    0 -0.00000000000E+00 -0.00000000000E+00 -0.13817667654E+02  0.13817667889E+02  0.25500000000E-02 0.  1.
          2    1    1    2    0  502  0.29419133143E+02  0.97135777754E+01  0.33464739685E+02  0.45604032681E+02  0.25500000000E-02 0.  1.
         -2    1    1    2  502    0 -0.29419133143E+02 -0.97135777754E+01  0.23222434184E+02  0.38718476778E+02  0.25500000000E-02 0.  1.
<mgrwt>
<rscale>  0 0.62424754E+02</rscale>
<asrwt>0</asrwt>
<pdfrwt beam="1">  1        2 0.10846899E-01 0.62424754E+02</pdfrwt>
<pdfrwt beam="2">  1       -2 0.21257950E-02 0.62424754E+02</pdfrwt>
<totfact> 0.30968489E+05</totfact>
</mgrwt>
</event>
<event>
 4    1  0.4696545E-002  0.5140815E+02  0.7818608E-02  0.1437891E+00
         -2   -1    0    0  501    0 -0.00000000000E+00  0.00000000000E+00  0.28747319120E+01  0.28747330429E+01  0.25500000000E-02 0.  1.
          2   -1    0    0    0  501  0.00000000000E+00 -0.00000000000E+00 -0.22982993648E+03  0.22982993649E+03  0.25500000000E-02 0.  1.
          2    1    1    2    0  502 -0.15575104896E+02  0.19002557324E+02 -0.79296899575E+02  0.83016139191E+02  0.25500000000E-02 0. -1.
         -2    1    1    2  502    0  0.15575104896E+02 -0.19002557324E+02 -0.14765830499E+03  0.14968853034E+03  0.25500000000E-02 0. -1.
<mgrwt>
<rscale>  0 0.51408154E+02</rscale>
<asrwt>0</asrwt>
<pdfrwt beam="2">  1        2 0.35358437E-01 0.51408154E+02</pdfrwt>
<pdfrwt beam="1">  1       -2 0.44226672E-03 0.51408154E+02</pdfrwt>
<totfact> 0.71964852E+05</totfact>
</mgrwt>
</event>
<event>
 4    1  0.4696545E-002  0.5069744E+02  0.7818608E-02  0.1441616E+00
          2   -1    0    0    0  501  0.00000000000E+00  0.00000000000E+00  0.19487172202E+04  0.19487172202E+04  0.25500000000E-02 0.  1.
         -2   -1    0    0  501    0 -0.00000000000E+00 -0.00000000000E+00 -0.32972873907E+00  0.32973859930E+00  0.25500000000E-02 0.  1.
          2    1    1    2    0  502 -0.12563364848E+02  0.19949775071E+02  0.13322167568E+04  0.13324253520E+04  0.25500000000E-02 0.  1.
         -2    1    1    2  502    0  0.12563364848E+02 -0.19949775071E+02  0.61617073465E+03  0.61662160674E+03  0.25500000000E-02 0.  1.
<mgrwt>
<rscale>  0 0.50697443E+02</rscale>
<asrwt>0</asrwt>
<pdfrwt beam="1">  1        2 0.29980583E+00 0.50697443E+02</pdfrwt>
<pdfrwt beam="2">  1       -2 0.50727719E-04 0.50697443E+02</pdfrwt>
<totfact> 0.90953472E+05</totfact>
</mgrwt>
</event>
<event>
 4    1  0.4696545E-002  0.1288642E+03  0.7818608E-02  0.1229151E+00
         -2   -1    0    0  501    0 -0.00000000000E+00  0.00000000000E+00  0.82328123258E+01  0.82328127207E+01  0.25500000000E-02 0. -1.
          2   -1    0    0    0  501  0.00000000000E+00 -0.00000000000E+00 -0.50426218273E+03  0.50426218273E+03  0.25500000000E-02 0. -1.
          2    1    1    2    0  502  0.27010106258E+02 -0.43666369191E+02 -0.40282221036E+03  0.40608131059E+03  0.25500000000E-02 0.  1.
         -2    1    1    2  502    0 -0.27010106258E+02  0.43666369191E+02 -0.93207160035E+02  0.10641368487E+03  0.25500000000E-02 0.  1.
<mgrwt>
<rscale>  0 0.12886421E+03</rscale>
<asrwt>0</asrwt>
<pdfrwt beam="2">  1        2 0.77578773E-01 0.12886421E+03</pdfrwt>
<pdfrwt beam="1">  1       -2 0.12665869E-02 0.12886421E+03</pdfrwt>
<totfact> 0.85057364E+04</totfact>
</mgrwt>
</event>
<event>
 4    1  0.4696545E-002  0.9014941E+02  0.7818608E-02  0.1302490E+00
         -2   -1    0    0  501    0 -0.00000000000E+00  0.00000000000E+00  0.47413317432E+01  0.47413324289E+01  0.25500000000E-02 0. -1.
          2   -1    0    0    0  501  0.00000000000E+00 -0.00000000000E+00 -0.42851438061E+03  0.42851438062E+03  0.25500000000E-02 0. -1.
          2    1    1    2    0  502 -0.13487817123E+02  0.23566828964E+02 -0.38977469665E+02  0.47503260795E+02  0.25500000000E-02 0.  1.
         -2    1    1    2  502    0  0.13487817123E+02 -0.23566828964E+02 -0.38479557920E+03  0.38575245225E+03  0.25500000000E-02 0.  1.
<mgrwt>
<rscale>  0 0.90149409E+02</rscale>
<asrwt>0</asrwt>
<pdfrwt beam="2">  1        2 0.65925259E-01 0.90149409E+02</pdfrwt>
<pdfrwt beam="1">  1       -2 0.72943605E-03 0.90149409E+02</pdfrwt>
<totfact> 0.21078093E+05</totfact>
</mgrwt>
</event>
<event>
 4    1  0.4696545E-002  0.5089289E+02  0.7818608E-02  0.1440584E+00
          2   -1    0    0    0  501  0.00000000000E+00  0.00000000000E+00  0.19622779735E+03  0.19622779737E+03  0.25500000000E-02 0. -1.
         -2   -1    0    0  501    0 -0.00000000000E+00 -0.00000000000E+00 -0.32998451850E+01  0.32998461702E+01  0.25500000000E-02 0. -1.
          2    1    1    2    0  502 -0.67226297326E+01 -0.24473956399E+02  0.89284831422E+02  0.92822138636E+02  0.25500000000E-02 0. -1.
         -2    1    1    2  502    0  0.67226297326E+01  0.24473956399E+02  0.10364312075E+03  0.10670550490E+03  0.25500000000E-02 0. -1.
<mgrwt>
<rscale>  0 0.50892886E+02</rscale>
<asrwt>0</asrwt>
<pdfrwt beam="1">  1        2 0.30188888E-01 0.50892886E+02</pdfrwt>
<pdfrwt beam="2">  1       -2 0.50766863E-03 0.50892886E+02</pdfrwt>
<totfact> 0.69981040E+05</totfact>
</mgrwt>
</event>
<event>
 4    1  0.4696545E-002  0.8473197E+02  0.7818608E-02  0.1316135E+00
          2   -1    0    0    0  501  0.00000000000E+00  0.00000000000E+00  0.38509853022E+03  0.38509853023E+03  0.25500000000E-02 0. -1.
         -2   -1    0    0  501    0 -0.00000000000E+00 -0.00000000000E+00 -0.46608243377E+01  0.46608250353E+01  0.25500000000E-02 0. -1.
          2    1    1    2    0  502 -0.35873009392E+02  0.21415750741E+02  0.15789829684E+03  0.16333211360E+03  0.25500000000E-02 0.  1.
         -2    1    1    2  502    0  0.35873009392E+02 -0.21415750741E+02  0.22253940905E+03  0.22642724167E+03  0.25500000000E-02 0.  1.
<mgrwt>
<rscale>  0 0.84731971E+02</rscale>
<asrwt>0</asrwt>
<pdfrwt beam="1">  1        2 0.59245930E-01 0.84731971E+02</pdfrwt>
<pdfrwt beam="2">  1       -2 0.71704992E-03 0.84731971E+02</pdfrwt>
<totfact> 0.23905566E+05</totfact>
</mgrwt>
</event>
<event>
 4    1  0.4696545E-002  0.5300062E+02  0.7818608E-02  0.1429798E+00
          2   -1    0    0    0  501  0.00000000000E+00  0.00000000000E+00  0.15601169264E+04  0.15601169265E+04  0.25500000000E-02 0. -1.
         -2   -1    0    0  501    0 -0.00000000000E+00 -0.00000000000E+00 -0.45013348587E+00  0.45014070867E+00  0.25500000000E-02 0. -1.
          2    1    1    2    0  502  0.24149056674E+02 -0.10873271096E+02  0.75250344239E+03  0.75296934584E+03  0.25500000000E-02 0. -1.
         -2    1    1    2  502    0 -0.24149056674E+02  0.10873271096E+02  0.80716335057E+03  0.80759772132E+03  0.25500000000E-02 0. -1.
<mgrwt>
<rscale>  0 0.53000623E+02</rscale>
<asrwt>0</asrwt>
<pdfrwt beam="1">  1        2 0.24001649E+00 0.53000623E+02</pdfrwt>
<pdfrwt beam="2">  1       -2 0.69252294E-04 0.53000623E+02</pdfrwt>
<totfact> 0.93366945E+05</totfact>
</mgrwt>
</event>
<event>
 4    1  0.4696545E-002  0.5080722E+02  0.7818608E-02  0.1441036E+00
          2   -1    0    0    0  501  0.00000000000E+00  0.00000000000E+00  0.25719162824E+03  0.25719162825E+03  0.25500000000E-02 0.  1.
         -2   -1    0    0  501    0 -0.00000000000E+00 -0.00000000000E+00 -0.25091920638E+01  0.25091933596E+01  0.25500000000E-02 0.  1.
          2    1    1    2    0  502 -0.32860252282E+01 -0.22788997258E+02  0.72477234946E+02  0.76046603802E+02  0.25500000000E-02 0. -1.
         -2    1    1    2  502    0  0.32860252282E+01  0.22788997258E+02  0.18220520123E+03  0.18365421781E+03  0.25500000000E-02 0. -1.
<mgrwt>
<rscale>  0 0.50807218E+02</rscale>
<asrwt>0</asrwt>
<pdfrwt beam="1">  1        2 0.39567934E-01 0.50807218E+02</pdfrwt>
<pdfrwt beam="2">  1       -2 0.38602973E-03 0.50807218E+02</pdfrwt>
<totfact> 0.77034016E+05</totfact>
</mgrwt>
</event>
<event>
 4    1  0.4696545E-002  0.5218937E+02  0.7818608E-02  0.1433878E+00
         -2   -1    0    0  501    0 -0.00000000000E+00  0.00000000000E+00  0.10967479025E+01  0.10967508669E+01  0.25500000000E-02 0.  1.
          2   -1    0    0    0  501  0.00000000000E+00 -0.00000000000E+00 -0.62086430629E+03  0.62086430630E+03  0.25500000000E-02 0.  1.
          2    1    1    2    0  502 -0.12772589386E+02  0.22679552912E+02 -0.28780801577E+03  0.28898262077E+03  0.25500000000E-02 0. -1.
         -2    1    1    2  502    0  0.12772589386E+02 -0.22679552912E+02 -0.33195954262E+03  0.33297843639E+03  0.25500000000E-02 0. -1.
<mgrwt>
<rscale>  0 0.52189369E+02</rscale>
<asrwt>0</asrwt>
<pdfrwt beam="2">  1        2 0.95517305E-01 0.52189369E+02</pdfrwt>
<pdfrwt beam="1">  1       -2 0.16873117E-03 0.52189369E+02</pdfrwt>
<totfact> 0.96117757E+05</totfact>
</mgrwt>
</event>
<event>
 4    1  0.4696545E-002  0.5011424E+02  0.7818608E-02  0.1444726E+00
         -2   -1    0    0  501    0 -0.00000000000E+00  0.00000000000E+00  0.42462088944E+00  0.42462854620E+00  0.25500000000E-02 0. -1.
          2   -1    0    0    0  501  0.00000000000E+00 -0.00000000000E+00 -0.14786216912E+04  0.14786216912E+04  0.25500000000E-02 0. -1.
          2    1    1    2    0  502 -0.22630352854E+02 -0.10006836698E+02 -0.85562886767E+03  0.85598658216E+03  0.25500000000E-02 0.  1.
         -2    1    1    2  502    0  0.22630352854E+02  0.10006836698E+02 -0.62256820263E+03  0.62305973758E+03  0.25500000000E-02 0.  1.
<mgrwt>
<rscale>  0 0.50114242E+02</rscale>
<asrwt>0</asrwt>
<pdfrwt beam="2">  1        2 0.22747614E+00 0.50114242E+02</pdfrwt>
<pdfrwt beam="1">  1       -2 0.65328064E-04 0.50114242E+02</pdfrwt>
<totfact> 0.10953112E+06</totfact>
</mgrwt>
</event>
<event>
 4    1  0.4696545E-002  0.6841571E+02  0.7818608E-02  0.1365565E+00
         -2   -1    0    0  501    0 -0.00000000000E+00  0.00000000000E+00  0.12217294499E+04  0.12217294499E+04  0.25500000000E-02 0. -1.
          2   -1    0    0    0  501  0.00000000000E+00 -0.00000000000E+00 -0.95780229055E+00  0.95780568503E+00  0.25500000000E-02 0. -1.
          2    1    1    2    0  502  0.29817528852E+02 -0.15407578566E+02  0.72852514206E+03  0.72929785488E+03  0.25500000000E-02 0. -1.
         -2    1    1    2  502    0 -0.29817528852E+02  0.15407578566E+02  0.49224650550E+03  0.49338940066E+03  0.25500000000E-02 0. -1.
<mgrwt>
<rscale>  0 0.68415710E+02</rscale>
<asrwt>0</asrwt>
<pdfrwt beam="2">  1        2 0.14735390E-03 0.68415710E+02</pdfrwt>
<pdfrwt beam="1">  1       -2 0.18795909E+00 0.68415710E+02</pdfrwt>
<totfact> 0.30357209E+04</totfact>
</mgrwt>
</event>
<event>
 4    1  0.4696545E-002  0.5868450E+02  0.7818608E-02  0.1403437E+00
          2   -1    0    0    0  501  0.00000000000E+00  0.00000000000E+00  0.81271473594E+03  0.81271473594E+03  0.25500000000E-02 0.  1.
         -2   -1    0    0  501    0 -0.00000000000E+00 -0.00000000000E+00 -0.10593710783E+01  0.10593741473E+01  0.25500000000E-02 0.  1.
          2    1    1    2    0  502  0.25903961535E+02 -0.77328588279E+01  0.56402952308E+03  0.56467700081E+03  0.25500000000E-02 0. -1.
         -2    1    1    2  502    0 -0.25903961535E+02  0.77328588279E+01  0.24762584178E+03  0.24909710928E+03  0.25500000000E-02 0. -1.
<mgrwt>
<rscale>  0 0.58684503E+02</rscale>
<asrwt>0</asrwt>
<pdfrwt beam="1">  1        2 0.12503324E+00 0.58684503E+02</pdfrwt>
<pdfrwt beam="2">  1       -2 0.16298014E-03 0.58684503E+02</pdfrwt>
<totfact> 0.76013063E+05</totfact>
</mgrwt>
</event>
<event>
 4    1  0.4696545E-002  0.4672718E+02  0.7818608E-02  0.1463839E+00
         -2   -1    0    0  501    0 -0.00000000000E+00  0.00000000000E+00  0.26904914115E+02  0.26904914236E+02  0.25500000000E-02 0. -1.
          2   -1    0    0    0  501  0.00000000000E+00 -0.00000000000E+00 -0.20288383994E+02  0.20288384154E+02  0.25500000000E-02 0. -1.
          2    1    1    2    0  502 -0.12017364990E+02  0.16262131516E+02  0.15129001315E+02  0.25253923854E+02  0.25500000000E-02 0.  1.
         -2    1    1    2  502    0  0.12017364990E+02 -0.16262131516E+02 -0.85124711931E+01  0.21939374536E+02  0.25500000000E-02 0.  1.
<mgrwt>
<rscale>  0 0.46727176E+02</rscale>
<asrwt>0</asrwt>
<pdfrwt beam="2">  1        2 0.31212899E-02 0.46727176E+02</pdfrwt>
<pdfrwt beam="1">  1       -2 0.41392176E-02 0.46727176E+02</pdfrwt>
<totfact> 0.52793268E+05</totfact>
</mgrwt>
</event>
<event>
 4    1  0.4696545E-002  0.4251514E+02  0.7818608E-02  0.1490478E+00
          2   -1    0    0    0  501  0.00000000000E+00  0.00000000000E+00  0.15362577431E+04  0.15362577431E+04  0.25500000000E-02 0.  1.
         -2   -1    0    0  501    0 -0.00000000000E+00 -0.00000000000E+00 -0.29414066408E+00  0.29415171726E+00  0.25500000000E-02 0.  1.
          2    1    1    2    0  502  0.18298055114E+02  0.10664647584E+02  0.70202192082E+03  0.70234132076E+03  0.25500000000E-02 0.  1.
         -2    1    1    2  502    0 -0.18298055114E+02 -0.10664647584E+02  0.83394168163E+03  0.83421057407E+03  0.25500000000E-02 0.  1.
<mgrwt>
<rscale>  0 0.42515144E+02</rscale>
<asrwt>0</asrwt>
<pdfrwt beam="1">  1        2 0.23634717E+00 0.42515144E+02</pdfrwt>
<pdfrwt beam="2">  1       -2 0.45253295E-04 0.42515144E+02</pdfrwt>
<totfact> 0.16178065E+06</totfact>
</mgrwt>
</event>
<event>
 4    1  0.4696545E-002  0.6212450E+02  0.7818608E-02  0.1389126E+00
         -2   -1    0    0  501    0 -0.00000000000E+00  0.00000000000E+00  0.19590563129E+01  0.19590579725E+01  0.25500000000E-02 0. -1.
          2   -1    0    0    0  501  0.00000000000E+00 -0.00000000000E+00 -0.49251408618E+03  0.49251408619E+03  0.25500000000E-02 0. -1.
          2    1    1    2    0  502  0.10273932822E+02 -0.24409272071E+02 -0.11607598663E+03  0.11905881293E+03  0.25500000000E-02 0.  1.
         -2    1    1    2  502    0 -0.10273932822E+02  0.24409272071E+02 -0.37447904324E+03  0.37541433123E+03  0.25500000000E-02 0.  1.
<mgrwt>
<rscale>  0 0.62124496E+02</rscale>
<asrwt>0</asrwt>
<pdfrwt beam="2">  1        2 0.75771299E-01 0.62124496E+02</pdfrwt>
<pdfrwt beam="1">  1       -2 0.30139380E-03 0.62124496E+02</pdfrwt>
<totfact> 0.58002181E+05</totfact>
</mgrwt>
</event>
<event>
 4    1  0.4696545E-002  0.1671353E+03  0.7818608E-02  0.1180869E+00
         -2   -1    0    0  501    0 -0.00000000000E+00  0.00000000000E+00  0.21945680370E+03  0.21945680372E+03  0.25500000000E-02 0.  1.
          2   -1    0    0    0  501  0.00000000000E+00 -0.00000000000E+00 -0.31821998789E+02  0.31821998891E+02  0.25500000000E-02 0.  1.
          2    1    1    2    0  502 -0.81684230614E+02  0.17641990573E+02  0.93859588944E+02  0.12567090278E+03  0.25500000000E-02 0. -1.
         -2    1    1    2  502    0  0.81684230614E+02 -0.17641990573E+02  0.93775215968E+02  0.12560789983E+03  0.25500000000E-02 0. -1.
<mgrwt>
<rscale>  0 0.16713532E+03</rscale>
<asrwt>0</asrwt>
<pdfrwt beam="2">  1        2 0.48956921E-02 0.16713532E+03</pdfrwt>
<pdfrwt beam="1">  1       -2 0.33762585E-01 0.16713532E+03</pdfrwt>
<totfact> 0.12644795E+04</totfact>
</mgrwt>
</event>
<event>
 4    1  0.4696545E-002  0.4700789E+02  0.7818608E-02  0.1462182E+00
         -2   -1    0    0  501    0 -0.00000000000E+00  0.00000000000E+00  0.23408344807E+02  0.23408344946E+02  0.25500000000E-02 0.  1.
          2   -1    0    0    0  501  0.00000000000E+00 -0.00000000000E+00 -0.23599936017E+02  0.23599936155E+02  0.25500000000E-02 0.  1.
          2    1    1    2    0  502 -0.10918360383E+02 -0.17851466279E+02  0.10607096565E+02  0.23460518873E+02  0.25500000000E-02 0.  1.
         -2    1    1    2  502    0  0.10918360383E+02  0.17851466279E+02 -0.10798687774E+02  0.23547762227E+02  0.25500000000E-02 0.  1.
<mgrwt>
<rscale>  0 0.47007891E+02</rscale>
<asrwt>0</asrwt>
<pdfrwt beam="2">  1        2 0.36307594E-02 0.47007891E+02</pdfrwt>
<pdfrwt beam="1">  1       -2 0.36012838E-02 0.47007891E+02</pdfrwt>
<totfact> 0.53150202E+05</totfact>
</mgrwt>
</event>
<event>
 4    1  0.4696545E-002  0.4557938E+02  0.7818608E-02  0.1470757E+00
          2   -1    0    0    0  501  0.00000000000E+00  0.00000000000E+00  0.40663886512E+02  0.40663886592E+02  0.25500000000E-02 0.  1.
         -2   -1    0    0  501    0 -0.00000000000E+00 -0.00000000000E+00 -0.12772266704E+02  0.12772266958E+02  0.25500000000E-02 0.  1.
          2    1    1    2    0  502 -0.12457771354E+01  0.22091469952E+02  0.20344124155E+02  0.30057751071E+02  0.25500000000E-02 0. -1.
         -2    1    1    2  502    0  0.12457771354E+01 -0.22091469952E+02  0.75474956543E+01  0.23378402479E+02  0.25500000000E-02 0. -1.
<mgrwt>
<rscale>  0 0.45579382E+02</rscale>
<asrwt>0</asrwt>
<pdfrwt beam="1">  1        2 0.62559826E-02 0.45579382E+02</pdfrwt>
<pdfrwt beam="2">  1       -2 0.19649641E-02 0.45579382E+02</pdfrwt>
<totfact> 0.62668914E+05</totfact>
</mgrwt>
</event>
<event>
 4    1  0.4696545E-002  0.5660440E+02  0.7818608E-02  0.1412660E+00
         -2   -1    0    0  501    0 -0.00000000000E+00  0.00000000000E+00  0.89793974028E+00  0.89794336106E+00  0.25500000000E-02 0.  1.
          2   -1    0    0    0  501  0.00000000000E+00 -0.00000000000E+00 -0.89205655800E+03  0.89205655801E+03  0.25500000000E-02 0.  1.
          2    1    1    2    0  502  0.20709029419E+02 -0.18865012484E+02 -0.38196325110E+03  0.38298913534E+03  0.25500000000E-02 0.  1.
         -2    1    1    2  502    0 -0.20709029419E+02  0.18865012484E+02 -0.50919536716E+03  0.50996536602E+03  0.25500000000E-02 0.  1.
<mgrwt>
<rscale>  0 0.56604405E+02</rscale>
<asrwt>0</asrwt>
<pdfrwt beam="2">  1        2 0.13723876E+00 0.56604405E+02</pdfrwt>
<pdfrwt beam="1">  1       -2 0.13814557E-03 0.56604405E+02</pdfrwt>
<totfact> 0.84297829E+05</totfact>
</mgrwt>
</event>
<event>
 4    1  0.4696545E-002  0.4418260E+02  0.7818608E-02  0.1479510E+00
          2   -1    0    0    0  501  0.00000000000E+00  0.00000000000E+00  0.93147292082E+01  0.93147295573E+01  0.25500000000E-02 0.  1.
         -2   -1    0    0  501    0 -0.00000000000E+00 -0.00000000000E+00 -0.52392881555E+02  0.52392881617E+02  0.25500000000E-02 0.  1.
          2    1    1    2    0  502 -0.16000260980E+02  0.12687218471E+02 -0.33311734676E+02  0.39072311649E+02  0.25500000000E-02 0. -1.
         -2    1    1    2  502    0  0.16000260980E+02 -0.12687218471E+02 -0.97664176703E+01  0.22635299525E+02  0.25500000000E-02 0. -1.
<mgrwt>
<rscale>  0 0.44182599E+02</rscale>
<asrwt>0</asrwt>
<pdfrwt beam="1">  1        2 0.14330353E-02 0.44182599E+02</pdfrwt>
<pdfrwt beam="2">  1       -2 0.80604432E-02 0.44182599E+02</pdfrwt>
<totfact> 0.54384907E+05</totfact>
</mgrwt>
</event>
<event>
 4    1  0.4696545E-002  0.5781075E+02  0.7818608E-02  0.1407256E+00
         -2   -1    0    0  501    0 -0.00000000000E+00  0.00000000000E+00  0.39366813943E+01  0.39366822202E+01  0.25500000000E-02 0.  1.
          2   -1    0    0    0  501  0.00000000000E+00 -0.00000000000E+00 -0.21223980186E+03  0.21223980187E+03  0.25500000000E-02 0.  1.
          2    1    1    2    0  502  0.28611145860E+01 -0.22205895995E+02 -0.35788043673E+02  0.42214593094E+02  0.25500000000E-02 0. -1.
         -2    1    1    2  502    0 -0.28611145860E+01  0.22205895995E+02 -0.17251507679E+03  0.17396189100E+03  0.25500000000E-02 0. -1.
<mgrwt>
<rscale>  0 0.57810745E+02</rscale>
<asrwt>0</asrwt>
<pdfrwt beam="2">  1        2 0.32652268E-01 0.57810745E+02</pdfrwt>
<pdfrwt beam="1">  1       -2 0.60564352E-03 0.57810745E+02</pdfrwt>
<totfact> 0.52057743E+05</totfact>
</mgrwt>
</event>
<event>
 4    1  0.4696545E-002  0.4992245E+02  0.7818608E-02  0.1445760E+00
          2   -1    0    0    0  501  0.00000000000E+00  0.00000000000E+00  0.67125433302E+00  0.67125917654E+00  0.25500000000E-02 0. -1.
         -2   -1    0    0  501    0 -0.00000000000E+00 -0.00000000000E+00 -0.92820317358E+03  0.92820317359E+03  0.25500000000E-02 0. -1.
          2    1    1    2    0  502 -0.23893159934E+02  0.58001878443E+01 -0.38365622652E+03  0.38444326685E+03  0.25500000000E-02 0. -1.
         -2    1    1    2  502    0  0.23893159934E+02 -0.58001878443E+01 -0.54387569273E+03  0.54443116592E+03  0.25500000000E-02 0. -1.
<mgrwt>
<rscale>  0 0.49922446E+02</rscale>
<asrwt>0</asrwt>
<pdfrwt beam="1">  1        2 0.10327101E-03 0.49922446E+02</pdfrwt>
<pdfrwt beam="2">  1       -2 0.14279946E+00 0.49922446E+02</pdfrwt>
<totfact> 0.93298266E+04</totfact>
</mgrwt>
</event>
<event>
 4    1  0.4696545E-002  0.5011658E+02  0.7818608E-02  0.1444714E+00
         -2   -1    0    0  501    0 -0.00000000000E+00  0.00000000000E+00  0.20254468833E+02  0.20254468993E+02  0.25500000000E-02 0.  1.
          2   -1    0    0    0  501  0.00000000000E+00 -0.00000000000E+00 -0.31001450732E+02  0.31001450837E+02  0.25500000000E-02 0.  1.
          2    1    1    2    0  502  0.13513365571E+02 -0.21028596277E+02 -0.71756533391E+01  0.26005824690E+02  0.25500000000E-02 0. -1.
         -2    1    1    2  502    0 -0.13513365571E+02  0.21028596277E+02 -0.35713285607E+01  0.25250095141E+02  0.25500000000E-02 0. -1.
<mgrwt>
<rscale>  0 0.50116581E+02</rscale>
<asrwt>0</asrwt>
<pdfrwt beam="2">  1        2 0.47694539E-02 0.50116581E+02</pdfrwt>
<pdfrwt beam="1">  1       -2 0.31160722E-02 0.50116581E+02</pdfrwt>
<totfact> 0.46908093E+05</totfact>
</mgrwt>
</event>
<event>
 4    1  0.4696545E-002  0.7574332E+02  0.7818608E-02  0.1341585E+00
          2   -1    0    0    0  501  0.00000000000E+00  0.00000000000E+00  0.32239124823E+03  0.32239124824E+03  0.25500000000E-02 0. -1.
         -2   -1    0    0  501    0 -0.00000000000E+00 -0.00000000000E+00 -0.44488257223E+01  0.44488264531E+01  0.25500000000E-02 0. -1.
          2    1    1    2    0  502  0.29344637040E+02  0.20930303988E+02  0.10881992632E+03  0.11463403386E+03  0.25500000000E-02 0.  1.
         -2    1    1    2  502    0 -0.29344637040E+02 -0.20930303988E+02  0.20912249619E+03  0.21220604083E+03  0.25500000000E-02 0.  1.
<mgrwt>
<rscale>  0 0.75743319E+02</rscale>
<asrwt>0</asrwt>
<pdfrwt beam="1">  1        2 0.49598647E-01 0.75743319E+02</pdfrwt>
<pdfrwt beam="2">  1       -2 0.68443488E-03 0.75743319E+02</pdfrwt>
<totfact> 0.30092333E+05</totfact>
</mgrwt>
</event>
<event>
 4    1  0.4696545E-002  0.4397221E+02  0.7818608E-02  0.1480862E+00
          2   -1    0    0    0  501  0.00000000000E+00  0.00000000000E+00  0.17952333943E+03  0.17952333945E+03  0.25500000000E-02 0. -1.
         -2   -1    0    0  501    0 -0.00000000000E+00 -0.00000000000E+00 -0.26926233612E+01  0.26926245686E+01  0.25500000000E-02 0. -1.
          2    1    1    2    0  502  0.18529575953E+02 -0.11776455836E+02  0.83585023488E+02  0.86420404159E+02  0.25500000000E-02 0. -1.
         -2    1    1    2  502    0 -0.18529575953E+02  0.11776455836E+02  0.93245692584E+02  0.95795559860E+02  0.25500000000E-02 0. -1.
<mgrwt>
<rscale>  0 0.43972212E+02</rscale>
<asrwt>0</asrwt>
<pdfrwt beam="1">  1        2 0.27618964E-01 0.43972212E+02</pdfrwt>
<pdfrwt beam="2">  1       -2 0.41425002E-03 0.43972212E+02</pdfrwt>
<totfact> 0.97811176E+05</totfact>
</mgrwt>
</event>
<event>
 4    1  0.4696545E-002  0.4203384E+02  0.7818608E-02  0.1493757E+00
         -2   -1    0    0  501    0 -0.00000000000E+00  0.00000000000E+00  0.77496001642E+00  0.77496421178E+00  0.25500000000E-02 0.  1.
          2   -1    0    0    0  501  0.00000000000E+00 -0.00000000000E+00 -0.56997740840E+03  0.56997740841E+03  0.25500000000E-02 0.  1.
          2    1    1    2    0  502  0.18917505402E+02  0.91108724842E+01 -0.27222410942E+03  0.27303268259E+03  0.25500000000E-02 0.  1.
         -2    1    1    2  502    0 -0.18917505402E+02 -0.91108724842E+01 -0.29697833897E+03  0.29771969003E+03  0.25500000000E-02 0.  1.
<mgrwt>
<rscale>  0 0.42033839E+02</rscale>
<asrwt>0</asrwt>
<pdfrwt beam="2">  1        2 0.87688497E-01 0.42033839E+02</pdfrwt>
<pdfrwt beam="1">  1       -2 0.11922540E-03 0.42033839E+02</pdfrwt>
<totfact> 0.15961643E+06</totfact>
</mgrwt>
</event>
<event>
 4    1  0.4696545E-002  0.1057028E+03  0.7818608E-02  0.1268741E+00
         -2   -1    0    0  501    0 -0.00000000000E+00  0.00000000000E+00  0.22177215989E+01  0.22177230650E+01  0.25500000000E-02 0. -1.
          2   -1    0    0    0  501  0.00000000000E+00 -0.00000000000E+00 -0.12595229080E+04  0.12595229080E+04  0.25500000000E-02 0. -1.
          2    1    1    2    0  502  0.29943273155E+02 -0.20728416991E+02 -0.10858453054E+04  0.10864558408E+04  0.25500000000E-02 0. -1.
         -2    1    1    2  502    0 -0.29943273155E+02  0.20728416991E+02 -0.17145988104E+03  0.17528479024E+03  0.25500000000E-02 0. -1.
<mgrwt>
<rscale>  0 0.10570283E+03</rscale>
<asrwt>0</asrwt>
<pdfrwt beam="2">  1        2 0.19377218E+00 0.10570283E+03</pdfrwt>
<pdfrwt beam="1">  1       -2 0.34118906E-03 0.10570283E+03</pdfrwt>
<totfact> 0.16694009E+05</totfact>
</mgrwt>
</event>
<event>
 4    1  0.4696545E-002  0.5380016E+02  0.7818608E-02  0.1425860E+00
          2   -1    0    0    0  501  0.00000000000E+00  0.00000000000E+00  0.60023538065E+02  0.60023538120E+02  0.25500000000E-02 0. -1.
         -2   -1    0    0  501    0 -0.00000000000E+00 -0.00000000000E+00 -0.12055506681E+02  0.12055506951E+02  0.25500000000E-02 0. -1.
          2    1    1    2    0  502 -0.16301513716E+02 -0.13210141453E+02  0.14312338750E+01  0.21030825556E+02  0.25500000000E-02 0.  1.
         -2    1    1    2  502    0  0.16301513716E+02  0.13210141453E+02  0.46536797509E+02  0.51048219514E+02  0.25500000000E-02 0.  1.
<mgrwt>
<rscale>  0 0.53800155E+02</rscale>
<asrwt>0</asrwt>
<pdfrwt beam="1">  1        2 0.92343906E-02 0.53800155E+02</pdfrwt>
<pdfrwt beam="2">  1       -2 0.18546933E-02 0.53800155E+02</pdfrwt>
<totfact> 0.44042965E+05</totfact>
</mgrwt>
</event>
<event>
 4    1  0.4696545E-002  0.7713476E+02  0.7818608E-02  0.1337385E+00
         -2   -1    0    0  501    0 -0.00000000000E+00  0.00000000000E+00  0.69601329497E+01  0.69601334168E+01  0.25500000000E-02 0.  1.
          2   -1    0    0    0  501  0.00000000000E+00 -0.00000000000E+00 -0.21370892838E+03  0.21370892840E+03  0.25500000000E-02 0.  1.
          2    1    1    2    0  502 -0.23747880572E+02  0.28249487348E+02 -0.13541656538E+03  0.14035541156E+03  0.25500000000E-02 0.  1.
         -2    1    1    2  502    0  0.23747880572E+02 -0.28249487348E+02 -0.71332230048E+02  0.80313650254E+02  0.25500000000E-02 0.  1.
<mgrwt>
<rscale>  0 0.77134755E+02</rscale>
<asrwt>0</asrwt>
<pdfrwt beam="2">  1        2 0.32878292E-01 0.77134755E+02</pdfrwt>
<pdfrwt beam="1">  1       -2 0.10707899E-02 0.77134755E+02</pdfrwt>
<totfact> 0.24726130E+05</totfact>
</mgrwt>
</event>
<event>
 4    1  0.4696545E-002  0.4486474E+02  0.7818608E-02  0.1475188E+00
          2   -1    0    0    0  501  0.00000000000E+00  0.00000000000E+00  0.21378626668E+03  0.21378626669E+03  0.25500000000E-02 0.  1.
         -2   -1    0    0  501    0 -0.00000000000E+00 -0.00000000000E+00 -0.23538045153E+01  0.23538058965E+01  0.25500000000E-02 0.  1.
          2    1    1    2    0  502 -0.13941154882E+02  0.14426852622E+02  0.15406561003E+03  0.15536634796E+03  0.25500000000E-02 0.  1.
         -2    1    1    2  502    0  0.13941154882E+02 -0.14426852622E+02  0.57366852130E+02  0.60773724634E+02  0.25500000000E-02 0.  1.
<mgrwt>
<rscale>  0 0.44864740E+02</rscale>
<asrwt>0</asrwt>
<pdfrwt beam="1">  1        2 0.32890210E-01 0.44864740E+02</pdfrwt>
<pdfrwt beam="2">  1       -2 0.36212371E-03 0.44864740E+02</pdfrwt>
<totfact> 0.98533078E+05</totfact>
</mgrwt>
</event>
<event>
 4    1  0.4696545E-002  0.4450895E+02  0.7818608E-02  0.1477431E+00
         -2   -1    0    0  501    0 -0.00000000000E+00  0.00000000000E+00  0.90475047232E+00  0.90475406585E+00  0.25500000000E-02 0. -1.
          2   -1    0    0    0  501  0.00000000000E+00 -0.00000000000E+00 -0.54740018153E+03  0.54740018153E+03  0.25500000000E-02 0. -1.
          2    1    1    2    0  502  0.20123991802E+02  0.77502673119E+01 -0.34096836259E+03  0.34164962459E+03  0.25500000000E-02 0.  1.
         -2    1    1    2  502    0 -0.20123991802E+02 -0.77502673119E+01 -0.20552706846E+03  0.20665531100E+03  0.25500000000E-02 0.  1.
<mgrwt>
<rscale>  0 0.44508946E+02</rscale>
<asrwt>0</asrwt>
<pdfrwt beam="2">  1        2 0.84215148E-01 0.44508946E+02</pdfrwt>
<pdfrwt beam="1">  1       -2 0.13919309E-03 0.44508946E+02</pdfrwt>
<totfact> 0.13732492E+06</totfact>
</mgrwt>
</event>
<event>
 4    1  0.4696545E-002  0.4806432E+02  0.7818608E-02  0.1456071E+00
          2   -1    0    0    0  501  0.00000000000E+00  0.00000000000E+00  0.21985056465E+04  0.21985056465E+04  0.25500000000E-02 0. -1.
         -2   -1    0    0  501    0 -0.00000000000E+00 -0.00000000000E+00 -0.26269261107E+00  0.26270498741E+00  0.25500000000E-02 0. -1.
          2    1    1    2    0  502  0.23770556118E+02  0.27221932785E+01  0.99586110789E+03  0.99614848084E+03  0.25500000000E-02 0.  1.
         -2    1    1    2  502    0 -0.23770556118E+02 -0.27221932785E+01  0.12023818460E+04  0.12026198706E+04  0.25500000000E-02 0.  1.
<mgrwt>
<rscale>  0 0.48064323E+02</rscale>
<asrwt>0</asrwt>
<pdfrwt beam="1">  1        2 0.33823558E+00 0.48064323E+02</pdfrwt>
<pdfrwt beam="2">  1       -2 0.40414730E-04 0.48064323E+02</pdfrwt>
<totfact> 0.92229788E+05</totfact>
</mgrwt>
</event>
<event>
 4    1  0.4696545E-002  0.2413530E+03  0.7818608E-02  0.1118895E+00
          2   -1    0    0    0  501  0.00000000000E+00  0.00000000000E+00  0.17138423914E+03  0.17138423916E+03  0.25500000000E-02 0.  1.
         -2   -1    0    0  501    0 -0.00000000000E+00 -0.00000000000E+00 -0.84971758200E+02  0.84971758238E+02  0.25500000000E-02 0.  1.
          2    1    1    2    0  502 -0.70585761416E+02  0.13949484202E+02  0.14610930194E+03  0.16286456320E+03  0.25500000000E-02 0. -1.
         -2    1    1    2  502    0  0.70585761416E+02 -0.13949484202E+02 -0.59696821004E+02  0.93491434200E+02  0.25500000000E-02 0. -1.
<mgrwt>
<rscale>  0 0.24135302E+03</rscale>
<asrwt>0</asrwt>
<pdfrwt beam="1">  1        2 0.26366806E-01 0.24135302E+03</pdfrwt>
<pdfrwt beam="2">  1       -2 0.13072578E-01 0.24135302E+03</pdfrwt>
<totfact> 0.85601854E+03</totfact>
</mgrwt>
</event>
<event>
 4    1  0.4696545E-002  0.6641007E+02  0.7818608E-02  0.1372745E+00
         -2   -1    0    0  501    0 -0.00000000000E+00  0.00000000000E+00  0.64271432859E+00  0.64271938719E+00  0.25500000000E-02 0. -1.
          2   -1    0    0    0  501  0.00000000000E+00 -0.00000000000E+00 -0.17154897902E+04  0.17154897902E+04  0.25500000000E-02 0. -1.
          2    1    1    2    0  502  0.72820988652E+00 -0.27815792799E+02 -0.13256643578E+04  0.13259563485E+04  0.25500000000E-02 0.  1.
         -2    1    1    2  502    0 -0.72820988652E+00  0.27815792799E+02 -0.38918271803E+03  0.39017616104E+03  0.25500000000E-02 0.  1.
<mgrwt>
<rscale>  0 0.66410066E+02</rscale>
<asrwt>0</asrwt>
<pdfrwt beam="2">  1        2 0.26391784E+00 0.66410066E+02</pdfrwt>
<pdfrwt beam="1">  1       -2 0.98880890E-04 0.66410066E+02</pdfrwt>
<totfact> 0.50364176E+05</totfact>
</mgrwt>
</event>
<event>
 4    1  0.4696545E-002  0.5259727E+02  0.7818608E-02  0.1431816E+00
         -2   -1    0    0  501    0 -0.00000000000E+00  0.00000000000E+00  0.32408208339E+03  0.32408208340E+03  0.25500000000E-02 0.  1.
          2   -1    0    0    0  501  0.00000000000E+00 -0.00000000000E+00 -0.21340829022E+01  0.21340844257E+01  0.25500000000E-02 0.  1.
          2    1    1    2    0  502 -0.12034677233E+02  0.23065365988E+02  0.13713505293E+03  0.13958104209E+03  0.25500000000E-02 0. -1.
         -2    1    1    2  502    0  0.12034677233E+02 -0.23065365988E+02  0.18481294756E+03  0.18663512573E+03  0.25500000000E-02 0. -1.
<mgrwt>
<rscale>  0 0.52597273E+02</rscale>
<asrwt>0</asrwt>
<pdfrwt beam="2">  1        2 0.32832049E-03 0.52597273E+02</pdfrwt>
<pdfrwt beam="1">  1       -2 0.49858794E-01 0.52597273E+02</pdfrwt>
<totfact> 0.19619780E+05</totfact>
</mgrwt>
</event>
<event>
 4    1  0.4696545E-002  0.4950613E+02  0.7818608E-02  0.1448024E+00
          2   -1    0    0    0  501  0.00000000000E+00  0.00000000000E+00  0.11016656041E+04  0.11016656041E+04  0.25500000000E-02 0.  1.
         -2   -1    0    0  501    0 -0.00000000000E+00 -0.00000000000E+00 -0.55616795512E+00  0.55617380090E+00  0.25500000000E-02 0.  1.
          2    1    1    2    0  502  0.23066853442E+02  0.85182032523E-01  0.75047236785E+03  0.75082678555E+03  0.25500000000E-02 0.  1.
         -2    1    1    2  502    0 -0.23066853442E+02 -0.85182032523E-01  0.35063706825E+03  0.35139499231E+03  0.25500000000E-02 0.  1.
<mgrwt>
<rscale>  0 0.49506134E+02</rscale>
<asrwt>0</asrwt>
<pdfrwt beam="1">  1        2 0.16948449E+00 0.49506134E+02</pdfrwt>
<pdfrwt beam="2">  1       -2 0.85566025E-04 0.49506134E+02</pdfrwt>
<totfact> 0.11874171E+06</totfact>
</mgrwt>
</event>
<event>
 4    1  0.4696545E-002  0.4822980E+02  0.7818608E-02  0.1455130E+00
          2   -1    0    0    0  501  0.00000000000E+00  0.00000000000E+00  0.15037153836E+04  0.15037153836E+04  0.25500000000E-02 0. -1.
         -2   -1    0    0  501    0 -0.00000000000E+00 -0.00000000000E+00 -0.38672353179E+00  0.38673193887E+00  0.25500000000E-02 0. -1.
          2    1    1    2    0  502  0.17727439278E+02 -0.15723465629E+02  0.89126885908E+03  0.89158379788E+03  0.25500000000E-02 0. -1.
         -2    1    1    2  502    0 -0.17727439278E+02  0.15723465629E+02  0.61205980099E+03  0.61251831766E+03  0.25500000000E-02 0. -1.
<mgrwt>
<rscale>  0 0.48229802E+02</rscale>
<asrwt>0</asrwt>
<pdfrwt beam="1">  1        2 0.23134307E+00 0.48229802E+02</pdfrwt>
<pdfrwt beam="2">  1       -2 0.59495997E-04 0.48229802E+02</pdfrwt>
<totfact> 0.11971111E+06</totfact>
</mgrwt>
</event>
<event>
 4    1  0.4696545E-002  0.5641734E+02  0.7818608E-02  0.1413513E+00
          2   -1    0    0    0  501  0.00000000000E+00  0.00000000000E+00  0.18874914910E+03  0.18874914911E+03  0.25500000000E-02 0.  1.
         -2   -1    0    0  501    0 -0.00000000000E+00 -0.00000000000E+00 -0.42158014979E+01  0.42158022692E+01  0.25500000000E-02 0.  1.
          2    1    1    2    0  502  0.74923457767E+01 -0.20862736932E+02  0.32598143351E+02  0.39421161753E+02  0.25500000000E-02 0. -1.
         -2    1    1    2  502    0 -0.74923457767E+01  0.20862736932E+02  0.15193520425E+03  0.15354378963E+03  0.25500000000E-02 0. -1.
<mgrwt>
<rscale>  0 0.56417339E+02</rscale>
<asrwt>0</asrwt>
<pdfrwt beam="1">  1        2 0.29038334E-01 0.56417339E+02</pdfrwt>
<pdfrwt beam="2">  1       -2 0.64858483E-03 0.56417339E+02</pdfrwt>
<totfact> 0.53244562E+05</totfact>
</mgrwt>
</event>
<event>
 4    1  0.4696545E-002  0.5370409E+02  0.7818608E-02  0.1426329E+00
         -2   -1    0    0  501    0 -0.00000000000E+00  0.00000000000E+00  0.27458199392E+01  0.27458211233E+01  0.25500000000E-02 0.  1.
          2   -1    0    0    0  501  0.00000000000E+00 -0.00000000000E+00 -0.26259265280E+03  0.26259265282E+03  0.25500000000E-02 0.  1.
          2    1    1    2    0  502  0.66209494365E+01 -0.19060185704E+02 -0.21746043306E+03  0.21839452284E+03  0.25500000000E-02 0. -1.
         -2    1    1    2  502    0 -0.66209494365E+01  0.19060185704E+02 -0.42386399801E+02  0.46943951102E+02  0.25500000000E-02 0. -1.
<mgrwt>
<rscale>  0 0.53704089E+02</rscale>
<asrwt>0</asrwt>
<pdfrwt beam="2">  1        2 0.40398850E-01 0.53704089E+02</pdfrwt>
<pdfrwt beam="1">  1       -2 0.42243413E-03 0.53704089E+02</pdfrwt>
<totfact> 0.67520016E+05</totfact>
</mgrwt>
</event>
<event>
 4    1  0.4696545E-002  0.4987351E+02  0.7818608E-02  0.1446025E+00
         -2   -1    0    0  501    0 -0.00000000000E+00  0.00000000000E+00  0.75521372930E+00  0.75521803436E+00  0.25500000000E-02 0.  1.
          2   -1    0    0    0  501  0.00000000000E+00 -0.00000000000E+00 -0.82339598170E+03  0.82339598170E+03  0.25500000000E-02 0.  1.
          2    1    1    2    0  502 -0.35057962957E+01  0.20892914978E+02 -0.19394681892E+03  0.19510041794E+03  0.25500000000E-02 0. -1.
         -2    1    1    2  502    0  0.35057962957E+01 -0.20892914978E+02 -0.62869394905E+03  0.62905078180E+03  0.25500000000E-02 0. -1.
<mgrwt>
<rscale>  0 0.49873509E+02</rscale>
<asrwt>0</asrwt>
<pdfrwt beam="2">  1        2 0.12667559E+00 0.49873509E+02</pdfrwt>
<pdfrwt beam="1">  1       -2 0.11618772E-03 0.49873509E+02</pdfrwt>
<totfact> 0.11420964E+06</totfact>
</mgrwt>
</event>
<event>
 4    1  0.4696545E-002  0.4958656E+02  0.7818608E-02  0.1447584E+00
          2   -1    0    0    0  501  0.00000000000E+00  0.00000000000E+00  0.16114602230E+02  0.16114602432E+02  0.25500000000E-02 0.  1.
         -2   -1    0    0  501    0 -0.00000000000E+00 -0.00000000000E+00 -0.38145950835E+02  0.38145950921E+02  0.25500000000E-02 0.  1.
          2    1    1    2    0  502  0.10714866903E+01 -0.20925594320E+02 -0.25519387190E+02  0.33019202147E+02  0.25500000000E-02 0. -1.
         -2    1    1    2  502    0 -0.10714866903E+01  0.20925594320E+02  0.34880385842E+01  0.21241351205E+02  0.25500000000E-02 0. -1.
<mgrwt>
<rscale>  0 0.49586564E+02</rscale>
<asrwt>0</asrwt>
<pdfrwt beam="1">  1        2 0.24791696E-02 0.49586564E+02</pdfrwt>
<pdfrwt beam="2">  1       -2 0.58686078E-02 0.49586564E+02</pdfrwt>
<totfact> 0.43508833E+05</totfact>
</mgrwt>
</event>
<event>
 4    1  0.4696545E-002  0.7213024E+02  0.7818608E-02  0.1352995E+00
         -2   -1    0    0  501    0 -0.00000000000E+00  0.00000000000E+00  0.28918018887E+01  0.28918030130E+01  0.25500000000E-02 0. -1.
          2   -1    0    0    0  501  0.00000000000E+00 -0.00000000000E+00 -0.44978623825E+03  0.44978623826E+03  0.25500000000E-02 0. -1.
          2    1    1    2    0  502  0.31835206871E+02  0.16556177854E+02 -0.24616674008E+03  0.24876826838E+03  0.25500000000E-02 0. -1.
         -2    1    1    2  502    0 -0.31835206871E+02 -0.16556177854E+02 -0.20072769628E+03  0.20390977289E+03  0.25500000000E-02 0. -1.
<mgrwt>
<rscale>  0 0.72130242E+02</rscale>
<asrwt>0</asrwt>
<pdfrwt beam="2">  1        2 0.69197827E-01 0.72130242E+02</pdfrwt>
<pdfrwt beam="1">  1       -2 0.44489304E-03 0.72130242E+02</pdfrwt>
<totfact> 0.38408236E+05</totfact>
</mgrwt>
</event>
<event>
 4    1  0.4696545E-002  0.5862410E+02  0.7818608E-02  0.1403698E+00
         -2   -1    0    0  501    0 -0.00000000000E+00  0.00000000000E+00  0.56233310394E+01  0.56233316176E+01  0.25500000000E-02 0.  1.
          2   -1    0    0    0  501  0.00000000000E+00 -0.00000000000E+00 -0.15279131185E+03  0.15279131187E+03  0.25500000000E-02 0.  1.
          2    1    1    2    0  502 -0.37523557226E+01 -0.22860538955E+02 -0.25056041674E+02  0.34124619348E+02  0.25500000000E-02 0. -1.
         -2    1    1    2  502    0  0.37523557226E+01  0.22860538955E+02 -0.12211193914E+03  0.12429002414E+03  0.25500000000E-02 0. -1.
<mgrwt>
<rscale>  0 0.58624097E+02</rscale>
<asrwt>0</asrwt>
<pdfrwt beam="2">  1        2 0.23506353E-01 0.58624097E+02</pdfrwt>
<pdfrwt beam="1">  1       -2 0.86512801E-03 0.58624097E+02</pdfrwt>
<totfact> 0.45086629E+05</totfact>
</mgrwt>
</event>
<event>
 4    1  0.4696545E-002  0.5508457E+02  0.7818608E-02  0.1419699E+00
          2   -1    0    0    0  501  0.00000000000E+00  0.00000000000E+00  0.14240142743E+04  0.14240142743E+04  0.25500000000E-02 0. -1.
         -2   -1    0    0  501    0 -0.00000000000E+00 -0.00000000000E+00 -0.53270051135E+00  0.53270661465E+00  0.25500000000E-02 0. -1.
          2    1    1    2    0  502  0.20453956507E+02  0.47892277052E+01  0.11723851031E+04  0.11725732945E+04  0.25500000000E-02 0.  1.
         -2    1    1    2  502    0 -0.20453956507E+02 -0.47892277052E+01  0.25109647067E+03  0.25197368638E+03  0.25500000000E-02 0.  1.
<mgrwt>
<rscale>  0 0.55084571E+02</rscale>
<asrwt>0</asrwt>
<pdfrwt beam="1">  1        2 0.21907962E+00 0.55084571E+02</pdfrwt>
<pdfrwt beam="2">  1       -2 0.81954207E-04 0.55084571E+02</pdfrwt>
<totfact> 0.87607196E+05</totfact>
</mgrwt>
</event>
<event>
 4    1  0.4696545E-002  0.5655185E+02  0.7818608E-02  0.1412899E+00
          2   -1    0    0    0  501  0.00000000000E+00  0.00000000000E+00  0.83948029172E+03  0.83948029173E+03  0.25500000000E-02 0.  1.
         -2   -1    0    0  501    0 -0.00000000000E+00 -0.00000000000E+00 -0.95240661238E+00  0.95241002609E+00  0.25500000000E-02 0.  1.
          2    1    1    2    0  502 -0.27778814217E+02 -0.10752031638E+01  0.49606875055E+03  0.49684708298E+03  0.25500000000E-02 0. -1.
         -2    1    1    2  502    0  0.27778814217E+02  0.10752031638E+01  0.34245913456E+03  0.34358561878E+03  0.25500000000E-02 0. -1.
<mgrwt>
<rscale>  0 0.56551853E+02</rscale>
<asrwt>0</asrwt>
<pdfrwt beam="1">  1        2 0.12915058E+00 0.56551853E+02</pdfrwt>
<pdfrwt beam="2">  1       -2 0.14652462E-03 0.56551853E+02</pdfrwt>
<totfact> 0.83827721E+05</totfact>
</mgrwt>
</event>
<event>
 4    1  0.4696545E-002  0.4113209E+02  0.7818608E-02  0.1500042E+00
          2   -1    0    0    0  501  0.00000000000E+00  0.00000000000E+00  0.34150191747E+02  0.34150191842E+02  0.25500000000E-02 0. -1.
         -2   -1    0    0  501    0 -0.00000000000E+00 -0.00000000000E+00 -0.12385353289E+02  0.12385353552E+02  0.25500000000E-02 0. -1.
          2    1    1    2    0  502  0.19788465179E+02  0.46729855114E+01  0.73875998287E+01  0.21633233356E+02  0.25500000000E-02 0. -1.
         -2    1    1    2  502    0 -0.19788465179E+02 -0.46729855114E+01  0.14377238629E+02  0.24902312037E+02  0.25500000000E-02 0. -1.
<mgrwt>
<rscale>  0 0.41132090E+02</rscale>
<asrwt>0</asrwt>
<pdfrwt beam="1">  1        2 0.52538756E-02 0.41132090E+02</pdfrwt>
<pdfrwt beam="2">  1       -2 0.19054390E-02 0.41132090E+02</pdfrwt>
<totfact> 0.79089405E+05</totfact>
</mgrwt>
</event>
<event>
 4    1  0.4696545E-002  0.7870362E+02  0.7818608E-02  0.1332771E+00
         -2   -1    0    0  501    0 -0.00000000000E+00  0.00000000000E+00  0.51597694617E+01  0.51597700919E+01  0.25500000000E-02 0.  1.
          2   -1    0    0    0  501  0.00000000000E+00 -0.00000000000E+00 -0.30012288164E+03  0.30012288166E+03  0.25500000000E-02 0.  1.
          2    1    1    2    0  502 -0.38784387919E+02  0.58165500811E+01 -0.16005297052E+03  0.16478778590E+03  0.25500000000E-02 0.  1.
         -2    1    1    2  502    0  0.38784387919E+02 -0.58165500811E+01 -0.13491014166E+03  0.14049486585E+03  0.25500000000E-02 0.  1.
<mgrwt>
<rscale>  0 0.78703621E+02</rscale>
<asrwt>0</asrwt>
<pdfrwt beam="2">  1        2 0.46172737E-01 0.78703621E+02</pdfrwt>
<pdfrwt beam="1">  1       -2 0.79381097E-03 0.78703621E+02</pdfrwt>
<totfact> 0.26518570E+05</totfact>
</mgrwt>
</event>
<event>
 4    1  0.4696545E-002  0.5621554E+02  0.7818608E-02  0.1414436E+00
         -2   -1    0    0  501    0 -0.00000000000E+00  0.00000000000E+00  0.12904187275E+03  0.12904187277E+03  0.25500000000E-02 0.  1.
          2   -1    0    0    0  501  0.00000000000E+00 -0.00000000000E+00 -0.61224051671E+01  0.61224056981E+01  0.25500000000E-02 0.  1.
          2    1    1    2    0  502 -0.21929067661E+02 -0.12378919025E+02  0.31436085809E+02  0.40278395477E+02  0.25500000000E-02 0.  1.
         -2    1    1    2  502    0  0.21929067661E+02  0.12378919025E+02  0.91483381771E+02  0.94885882994E+02  0.25500000000E-02 0.  1.
<mgrwt>
<rscale>  0 0.56215538E+02</rscale>
<asrwt>0</asrwt>
<pdfrwt beam="2">  1        2 0.94190867E-03 0.56215538E+02</pdfrwt>
<pdfrwt beam="1">  1       -2 0.19852593E-01 0.56215538E+02</pdfrwt>
<totfact> 0.24666010E+05</totfact>
</mgrwt>
</event>
<event>
 4    1  0.4696545E-002  0.4180583E+02  0.7818608E-02  0.1495328E+00
         -2   -1    0    0  501    0 -0.00000000000E+00  0.00000000000E+00  0.21804300728E+00  0.21805791782E+00  0.25500000000E-02 0.  1.
          2   -1    0    0    0  501  0.00000000000E+00 -0.00000000000E+00 -0.20038106170E+04  0.20038106170E+04  0.25500000000E-02 0.  1.
          2    1    1    2    0  502 -0.13918147328E+02  0.14379234880E+02 -0.12912261285E+04  0.12913811955E+04  0.25500000000E-02 0.  1.
         -2    1    1    2  502    0  0.13918147328E+02 -0.14379234880E+02 -0.71236644553E+03  0.71264747943E+03  0.25500000000E-02 0.  1.
<mgrwt>
<rscale>  0 0.41805829E+02</rscale>
<asrwt>0</asrwt>
<pdfrwt beam="2">  1        2 0.30826381E+00 0.41805829E+02</pdfrwt>
<pdfrwt beam="1">  1       -2 0.33547830E-04 0.41805829E+02</pdfrwt>
<totfact> 0.14308083E+06</totfact>
</mgrwt>
</event>
<event>
 4    1  0.4696545E-002  0.6565008E+02  0.7818608E-02  0.1375543E+00
          2   -1    0    0    0  501  0.00000000000E+00  0.00000000000E+00  0.63408683935E+03  0.63408683935E+03  0.25500000000E-02 0.  1.
         -2   -1    0    0  501    0 -0.00000000000E+00 -0.00000000000E+00 -0.16992666930E+01  0.16992686063E+01  0.25500000000E-02 0.  1.
          2    1    1    2    0  502 -0.25103779652E+02  0.20926894107E+02  0.28658305964E+03  0.28844060866E+03  0.25500000000E-02 0.  1.
         -2    1    1    2  502    0  0.25103779652E+02 -0.20926894107E+02  0.34580451302E+03  0.34734549930E+03  0.25500000000E-02 0.  1.
<mgrwt>
<rscale>  0 0.65650080E+02</rscale>
<asrwt>0</asrwt>
<pdfrwt beam="1">  1        2 0.97551805E-01 0.65650080E+02</pdfrwt>
<pdfrwt beam="2">  1       -2 0.26142584E-03 0.65650080E+02</pdfrwt>
<totfact> 0.54252549E+05</totfact>
</mgrwt>
</event>
<event>
 4    1  0.4696545E-002  0.4102553E+02  0.7818608E-02  0.1500797E+00
          2   -1    0    0    0  501  0.00000000000E+00  0.00000000000E+00  0.26395450841E+03  0.26395450842E+03  0.25500000000E-02 0. -1.
         -2   -1    0    0  501    0 -0.00000000000E+00 -0.00000000000E+00 -0.15941126830E+01  0.15941147226E+01  0.25500000000E-02 0. -1.
          2    1    1    2    0  502 -0.17276016841E+02 -0.10194923770E+02  0.10343303949E+03  0.10536029088E+03  0.25500000000E-02 0.  1.
         -2    1    1    2  502    0  0.17276016841E+02  0.10194923770E+02  0.15892735623E+03  0.16018833226E+03  0.25500000000E-02 0.  1.
<mgrwt>
<rscale>  0 0.41025529E+02</rscale>
<asrwt>0</asrwt>
<pdfrwt beam="1">  1        2 0.40608413E-01 0.41025529E+02</pdfrwt>
<pdfrwt beam="2">  1       -2 0.24524810E-03 0.41025529E+02</pdfrwt>
<totfact> 0.13169492E+06</totfact>
</mgrwt>
</event>
<event>
 4    1  0.4696545E-002  0.5796453E+02  0.7818608E-02  0.1406578E+00
          2   -1    0    0    0  501  0.00000000000E+00  0.00000000000E+00  0.88795674558E+02  0.88795674595E+02  0.25500000000E-02 0. -1.
         -2   -1    0    0  501    0 -0.00000000000E+00 -0.00000000000E+00 -0.94596014923E+01  0.94596018360E+01  0.25500000000E-02 0. -1.
          2    1    1    2    0  502 -0.23239964790E+02 -0.13076579797E+02  0.20424525824E+02  0.33589494849E+02  0.25500000000E-02 0. -1.
         -2    1    1    2  502    0  0.23239964790E+02  0.13076579797E+02  0.58911547242E+02  0.64665781581E+02  0.25500000000E-02 0. -1.
<mgrwt>
<rscale>  0 0.57964531E+02</rscale>
<asrwt>0</asrwt>
<pdfrwt beam="1">  1        2 0.13660874E-01 0.57964531E+02</pdfrwt>
<pdfrwt beam="2">  1       -2 0.14553233E-02 0.57964531E+02</pdfrwt>
<totfact> 0.39767622E+05</totfact>
</mgrwt>
</event>
<event>
 4    1  0.4696545E-002  0.6748165E+02  0.7818608E-02  0.1368872E+00
         -2   -1    0    0  501    0 -0.00000000000E+00  0.00000000000E+00  0.48684019327E+03  0.48684019328E+03  0.25500000000E-02 0.  1.
          2   -1    0    0    0  501  0.00000000000E+00 -0.00000000000E+00 -0.23384324809E+01  0.23384338713E+01  0.25500000000E-02 0.  1.
          2    1    1    2    0  502  0.15686498207E+02 -0.29857744884E+02  0.24909769704E+03  0.25137067019E+03  0.25500000000E-02 0.  1.
         -2    1    1    2  502    0 -0.15686498207E+02  0.29857744884E+02  0.23540406375E+03  0.23780795696E+03  0.25500000000E-02 0.  1.
<mgrwt>
<rscale>  0 0.67481650E+02</rscale>
<asrwt>0</asrwt>
<pdfrwt beam="2">  1        2 0.35975869E-03 0.67481650E+02</pdfrwt>
<pdfrwt beam="1">  1       -2 0.74898546E-01 0.67481650E+02</pdfrwt>
<totfact> 0.80103276E+04</totfact>
</mgrwt>
</event>
<event>
 4    1  0.4696545E-002  0.1048851E+03  0.7818608E-02  0.1270346E+00
         -2   -1    0    0  501    0 -0.00000000000E+00  0.00000000000E+00  0.16788757014E+02  0.16788757208E+02  0.25500000000E-02 0. -1.
          2   -1    0    0    0  501  0.00000000000E+00 -0.00000000000E+00 -0.16381337375E+03  0.16381337377E+03  0.25500000000E-02 0. -1.
          2    1    1    2    0  502 -0.32769365398E+02 -0.39758869244E+02 -0.56674240345E+02  0.76593527907E+02  0.25500000000E-02 0.  1.
         -2    1    1    2  502    0  0.32769365398E+02  0.39758869244E+02 -0.90350376394E+02  0.10400860307E+03  0.25500000000E-02 0.  1.
<mgrwt>
<rscale>  0 0.10488514E+03</rscale>
<asrwt>0</asrwt>
<pdfrwt beam="2">  1        2 0.25202056E-01 0.10488514E+03</pdfrwt>
<pdfrwt beam="1">  1       -2 0.25828858E-02 0.10488514E+03</pdfrwt>
<totfact> 0.98275841E+04</totfact>
</mgrwt>
</event>
<event>
 4    1  0.4696545E-002  0.1402475E+03  0.7818608E-02  0.1212996E+00
         -2   -1    0    0  501    0 -0.00000000000E+00  0.00000000000E+00  0.16226651533E+02  0.16226651734E+02  0.25500000000E-02 0. -1.
          2   -1    0    0    0  501  0.00000000000E+00 -0.00000000000E+00 -0.30304112220E+03  0.30304112221E+03  0.25500000000E-02 0. -1.
          2    1    1    2    0  502 -0.60456241565E+02 -0.18017198457E+02 -0.73695302920E+02  0.97008114420E+02  0.25500000000E-02 0. -1.
         -2    1    1    2  502    0  0.60456241565E+02  0.18017198457E+02 -0.21311916775E+03  0.22225965952E+03  0.25500000000E-02 0. -1.
<mgrwt>
<rscale>  0 0.14024753E+03</rscale>
<asrwt>0</asrwt>
<pdfrwt beam="2">  1        2 0.46621707E-01 0.14024753E+03</pdfrwt>
<pdfrwt beam="1">  1       -2 0.24964082E-02 0.14024753E+03</pdfrwt>
<totfact> 0.55523068E+04</totfact>
</mgrwt>
</event>
<event>
 4    1  0.4696545E-002  0.4742303E+02  0.7818608E-02  0.1459758E+00
          2   -1    0    0    0  501  0.00000000000E+00  0.00000000000E+00  0.19500161973E+04  0.19500161973E+04  0.25500000000E-02 0.  1.
         -2   -1    0    0  501    0 -0.00000000000E+00 -0.00000000000E+00 -0.28831806519E+00  0.28832934157E+00  0.25500000000E-02 0.  1.
          2    1    1    2    0  502 -0.17182335643E+02 -0.14851610127E+02  0.69462654586E+03  0.69499772748E+03  0.25500000000E-02 0. -1.
         -2    1    1    2  502    0  0.17182335643E+02  0.14851610127E+02  0.12551013334E+04  0.12553067992E+04  0.25500000000E-02 0. -1.
<mgrwt>
<rscale>  0 0.47423028E+02</rscale>
<asrwt>0</asrwt>
<pdfrwt beam="1">  1        2 0.29999474E+00 0.47423028E+02</pdfrwt>
<pdfrwt beam="2">  1       -2 0.44358639E-04 0.47423028E+02</pdfrwt>
<totfact> 0.10734346E+06</totfact>
</mgrwt>
</event>
<event>
 4    1  0.4696545E-002  0.5897967E+02  0.7818608E-02  0.1402164E+00
          2   -1    0    0    0  501  0.00000000000E+00  0.00000000000E+00  0.11022560511E+04  0.11022560511E+04  0.25500000000E-02 0.  1.
         -2   -1    0    0  501    0 -0.00000000000E+00 -0.00000000000E+00 -0.78897103546E+00  0.78897515633E+00  0.25500000000E-02 0.  1.
          2    1    1    2    0  502  0.10349491654E+02 -0.25824032654E+02  0.36781786366E+03  0.36886850432E+03  0.25500000000E-02 0.  1.
         -2    1    1    2  502    0 -0.10349491654E+02  0.25824032654E+02  0.73364921641E+03  0.73417652195E+03  0.25500000000E-02 0.  1.
<mgrwt>
<rscale>  0 0.58979670E+02</rscale>
<asrwt>0</asrwt>
<pdfrwt beam="1">  1        2 0.16957883E+00 0.58979670E+02</pdfrwt>
<pdfrwt beam="2">  1       -2 0.12137978E-03 0.58979670E+02</pdfrwt>
<totfact> 0.76779397E+05</totfact>
</mgrwt>
</event>
<event>
 4    1  0.4696545E-002  0.8441466E+02  0.7818608E-02  0.1316970E+00
          2   -1    0    0    0  501  0.00000000000E+00  0.00000000000E+00  0.14832943948E+04  0.14832943948E+04  0.25500000000E-02 0.  1.
         -2   -1    0    0  501    0 -0.00000000000E+00 -0.00000000000E+00 -0.12010136964E+01  0.12010164035E+01  0.25500000000E-02 0.  1.
          2    1    1    2    0  502 -0.74648150445E+01  0.38544933881E+02  0.10134973353E+04  0.10142575039E+04  0.25500000000E-02 0.  1.
         -2    1    1    2  502    0  0.74648150445E+01 -0.38544933881E+02  0.46859604575E+03  0.47023790733E+03  0.25500000000E-02 0.  1.
<mgrwt>
<rscale>  0 0.84414664E+02</rscale>
<asrwt>0</asrwt>
<pdfrwt beam="1">  1        2 0.22819934E+00 0.84414664E+02</pdfrwt>
<pdfrwt beam="2">  1       -2 0.18477138E-03 0.84414664E+02</pdfrwt>
<totfact> 0.29007701E+05</totfact>
</mgrwt>
</event>
<event>
 4    1  0.4696545E-002  0.5345930E+02  0.7818608E-02  0.1427529E+00
          2   -1    0    0    0  501  0.00000000000E+00  0.00000000000E+00  0.15691107510E+04  0.15691107510E+04  0.25500000000E-02 0. -1.
         -2   -1    0    0  501    0 -0.00000000000E+00 -0.00000000000E+00 -0.45533349107E+00  0.45534063139E+00  0.25500000000E-02 0. -1.
          2    1    1    2    0  502 -0.25302441230E+02  0.27386559841E+01  0.54443551168E+03  0.54503003601E+03  0.25500000000E-02 0.  1.
         -2    1    1    2  502    0  0.25302441230E+02 -0.27386559841E+01  0.10242199058E+04  0.10245360556E+04  0.25500000000E-02 0.  1.
<mgrwt>
<rscale>  0 0.53459303E+02</rscale>
<asrwt>0</asrwt>
<pdfrwt beam="1">  1        2 0.24139983E+00 0.53459303E+02</pdfrwt>
<pdfrwt beam="2">  1       -2 0.70052385E-04 0.53459303E+02</pdfrwt>
<totfact> 0.91158966E+05</totfact>
</mgrwt>
</event>
<event>
 4    1  0.4696545E-002  0.4781124E+02  0.7818608E-02  0.1457518E+00
         -2   -1    0    0  501    0 -0.00000000000E+00  0.00000000000E+00  0.14424047356E+02  0.14424047581E+02  0.25500000000E-02 0. -1.
          2   -1    0    0    0  501  0.00000000000E+00 -0.00000000000E+00 -0.39619853626E+02  0.39619853708E+02  0.25500000000E-02 0. -1.
          2    1    1    2    0  502 -0.11846486375E+02  0.20757739477E+02 -0.13169444035E+02  0.27288408718E+02  0.25500000000E-02 0. -1.
         -2    1    1    2  502    0  0.11846486375E+02 -0.20757739477E+02 -0.12026362234E+02  0.26755492571E+02  0.25500000000E-02 0. -1.
<mgrwt>
<rscale>  0 0.47811239E+02</rscale>
<asrwt>0</asrwt>
<pdfrwt beam="2">  1        2 0.60953621E-02 0.47811239E+02</pdfrwt>
<pdfrwt beam="1">  1       -2 0.22190843E-02 0.47811239E+02</pdfrwt>
<totfact> 0.55199227E+05</totfact>
</mgrwt>
</event>
<event>
 4    1  0.4696545E-002  0.5045984E+02  0.7818608E-02  0.1442877E+00
         -2   -1    0    0  501    0 -0.00000000000E+00  0.00000000000E+00  0.22114202714E+03  0.22114202716E+03  0.25500000000E-02 0. -1.
          2   -1    0    0    0  501  0.00000000000E+00 -0.00000000000E+00 -0.28784611876E+01  0.28784623171E+01  0.25500000000E-02 0. -1.
          2    1    1    2    0  502 -0.24968557190E+02 -0.27359536097E+01  0.98593438487E+02  0.10174271674E+03  0.25500000000E-02 0. -1.
         -2    1    1    2  502    0  0.24968557190E+02  0.27359536097E+01  0.11967012747E+03  0.12227777273E+03  0.25500000000E-02 0. -1.
<mgrwt>
<rscale>  0 0.50459840E+02</rscale>
<asrwt>0</asrwt>
<pdfrwt beam="2">  1        2 0.44284024E-03 0.50459840E+02</pdfrwt>
<pdfrwt beam="1">  1       -2 0.34021853E-01 0.50459840E+02</pdfrwt>
<totfact> 0.26409049E+05</totfact>
</mgrwt>
</event>
<event>
 4    1  0.4696545E-002  0.4785832E+02  0.7818608E-02  0.1457248E+00
         -2   -1    0    0  501    0 -0.00000000000E+00  0.00000000000E+00  0.69761996648E+00  0.69762462695E+00  0.25500000000E-02 0.  1.
          2   -1    0    0    0  501  0.00000000000E+00 -0.00000000000E+00 -0.82079461820E+03  0.82079461821E+03  0.25500000000E-02 0.  1.
          2    1    1    2    0  502 -0.11631254579E+02  0.17118326935E+02 -0.61623073861E+03  0.61657817542E+03  0.25500000000E-02 0. -1.
         -2    1    1    2  502    0  0.11631254579E+02 -0.17118326935E+02 -0.20386625963E+03  0.20491406741E+03  0.25500000000E-02 0. -1.
<mgrwt>
<rscale>  0 0.47858317E+02</rscale>
<asrwt>0</asrwt>
<pdfrwt beam="2">  1        2 0.12627532E+00 0.47858317E+02</pdfrwt>
<pdfrwt beam="1">  1       -2 0.10732716E-03 0.47858317E+02</pdfrwt>
<totfact> 0.12634757E+06</totfact>
</mgrwt>
</event>
<event>
 4    1  0.4696545E-002  0.4844340E+02  0.7818608E-02  0.1453923E+00
          2   -1    0    0    0  501  0.00000000000E+00  0.00000000000E+00  0.24760201165E+02  0.24760201296E+02  0.25500000000E-02 0.  1.
         -2   -1    0    0  501    0 -0.00000000000E+00 -0.00000000000E+00 -0.23694906148E+02  0.23694906285E+02  0.25500000000E-02 0.  1.
          2    1    1    2    0  502  0.74100200996E+01 -0.22890889927E+02 -0.22589774804E+01  0.24166179369E+02  0.25500000000E-02 0. -1.
         -2    1    1    2  502    0 -0.74100200996E+01  0.22890889927E+02  0.33242724976E+01  0.24288928212E+02  0.25500000000E-02 0. -1.
<mgrwt>
<rscale>  0 0.48443396E+02</rscale>
<asrwt>0</asrwt>
<pdfrwt beam="1">  1        2 0.38092617E-02 0.48443396E+02</pdfrwt>
<pdfrwt beam="2">  1       -2 0.36453702E-02 0.48443396E+02</pdfrwt>
<totfact> 0.49482309E+05</totfact>
</mgrwt>
</event>
<event>
 4    1  0.4696545E-002  0.4048680E+02  0.7818608E-02  0.1504659E+00
          2   -1    0    0    0  501  0.00000000000E+00  0.00000000000E+00  0.81722960494E+03  0.81722960494E+03  0.25500000000E-02 0.  1.
         -2   -1    0    0  501    0 -0.00000000000E+00 -0.00000000000E+00 -0.50144123231E+00  0.50144771608E+00  0.25500000000E-02 0.  1.
          2    1    1    2    0  502 -0.11837506317E+02  0.16381622184E+02  0.38523674034E+03  0.38576654885E+03  0.25500000000E-02 0.  1.
         -2    1    1    2  502    0  0.11837506317E+02 -0.16381622184E+02  0.43149142336E+03  0.43196450380E+03  0.25500000000E-02 0.  1.
<mgrwt>
<rscale>  0 0.40486801E+02</rscale>
<asrwt>0</asrwt>
<pdfrwt beam="1">  1        2 0.12572850E+00 0.40486801E+02</pdfrwt>
<pdfrwt beam="2">  1       -2 0.77144772E-04 0.40486801E+02</pdfrwt>
<totfact> 0.18957906E+06</totfact>
</mgrwt>
</event>
<event>
 4    1  0.4696545E-002  0.1620649E+03  0.7818608E-02  0.1186385E+00
         -2   -1    0    0  501    0 -0.00000000000E+00  0.00000000000E+00  0.25832608687E+01  0.25832621273E+01  0.25500000000E-02 0.  1.
          2   -1    0    0    0  501  0.00000000000E+00 -0.00000000000E+00 -0.25418491220E+04  0.25418491220E+04  0.25500000000E-02 0.  1.
          2    1    1    2    0  502  0.32900454753E+02 -0.23302018852E+02 -0.23732085836E+04  0.23735510117E+04  0.25500000000E-02 0. -1.
         -2    1    1    2  502    0 -0.32900454753E+02  0.23302018852E+02 -0.16605727757E+03  0.17088137243E+03  0.25500000000E-02 0. -1.
<mgrwt>
<rscale>  0 0.16206494E+03</rscale>
<asrwt>0</asrwt>
<pdfrwt beam="2">  1        2 0.39105171E+00 0.16206494E+03</pdfrwt>
<pdfrwt beam="1">  1       -2 0.39742688E-03 0.16206494E+03</pdfrwt>
<totfact> 0.30136349E+04</totfact>
</mgrwt>
</event>
<event>
 4    1  0.4696545E-002  0.4356332E+02  0.7818608E-02  0.1483515E+00
          2   -1    0    0    0  501  0.00000000000E+00  0.00000000000E+00  0.18341601254E+04  0.18341601254E+04  0.25500000000E-02 0. -1.
         -2   -1    0    0  501    0 -0.00000000000E+00 -0.00000000000E+00 -0.25866286329E+00  0.25867543243E+00  0.25500000000E-02 0. -1.
          2    1    1    2    0  502  0.16851674134E+02  0.13537450022E+02  0.10299351212E+04  0.10301619268E+04  0.25500000000E-02 0. -1.
         -2    1    1    2  502    0 -0.16851674134E+02 -0.13537450022E+02  0.80396634131E+03  0.80425687404E+03  0.25500000000E-02 0. -1.
<mgrwt>
<rscale>  0 0.43563317E+02</rscale>
<asrwt>0</asrwt>
<pdfrwt beam="1">  1        2 0.28217376E+00 0.43563317E+02</pdfrwt>
<pdfrwt beam="2">  1       -2 0.39795920E-04 0.43563317E+02</pdfrwt>
<totfact> 0.13867646E+06</totfact>
</mgrwt>
</event>
<event>
 4    1  0.4696545E-002  0.7570945E+02  0.7818608E-02  0.1341688E+00
          2   -1    0    0    0  501  0.00000000000E+00  0.00000000000E+00  0.60436509240E+03  0.60436509241E+03  0.25500000000E-02 0.  1.
         -2   -1    0    0  501    0 -0.00000000000E+00 -0.00000000000E+00 -0.23710496455E+01  0.23710510167E+01  0.25500000000E-02 0.  1.
          2    1    1    2    0  502  0.19994057355E+02  0.20847426791E+02  0.49707059622E+03  0.49790918365E+03  0.25500000000E-02 0.  1.
         -2    1    1    2  502    0 -0.19994057355E+02 -0.20847426791E+02  0.10492344653E+03  0.10882695977E+03  0.25500000000E-02 0.  1.
<mgrwt>
<rscale>  0 0.75709446E+02</rscale>
<asrwt>0</asrwt>
<pdfrwt beam="1">  1        2 0.92979266E-01 0.75709446E+02</pdfrwt>
<pdfrwt beam="2">  1       -2 0.36477689E-03 0.75709446E+02</pdfrwt>
<totfact> 0.37129255E+05</totfact>
</mgrwt>
</event>
<event>
 4    1  0.4696545E-002  0.6979572E+02  0.7818608E-02  0.1360789E+00
          2   -1    0    0    0  501  0.00000000000E+00  0.00000000000E+00  0.14537779769E+04  0.14537779769E+04  0.25500000000E-02 0.  1.
         -2   -1    0    0  501    0 -0.00000000000E+00 -0.00000000000E+00 -0.83771927661E+00  0.83772315767E+00  0.25500000000E-02 0.  1.
          2    1    1    2    0  502  0.27827837986E+02  0.24623062443E+00  0.28761323070E+03  0.28895643215E+03  0.25500000000E-02 0.  1.
         -2    1    1    2  502    0 -0.27827837986E+02 -0.24623062443E+00  0.11653270269E+04  0.11656592679E+04  0.25500000000E-02 0.  1.
<mgrwt>
<rscale>  0 0.69795721E+02</rscale>
<asrwt>0</asrwt>
<pdfrwt beam="1">  1        2 0.22365500E+00 0.69795721E+02</pdfrwt>
<pdfrwt beam="2">  1       -2 0.12888200E-03 0.69795721E+02</pdfrwt>
<totfact> 0.47797517E+05</totfact>
</mgrwt>
</event>
<event>
 4    1  0.4696545E-002  0.4264926E+02  0.7818608E-02  0.1489574E+00
         -2   -1    0    0  501    0 -0.00000000000E+00  0.00000000000E+00  0.59327256861E+00  0.59327804878E+00  0.25500000000E-02 0. -1.
          2   -1    0    0    0  501  0.00000000000E+00 -0.00000000000E+00 -0.76649040379E+03  0.76649040379E+03  0.25500000000E-02 0. -1.
          2    1    1    2    0  502 -0.20098421761E+02  0.36832918371E+01 -0.49268683827E+03  0.49311036676E+03  0.25500000000E-02 0.  1.
         -2    1    1    2  502    0  0.20098421761E+02 -0.36832918371E+01 -0.27321029295E+03  0.27397331508E+03  0.25500000000E-02 0.  1.
<mgrwt>
<rscale>  0 0.42649260E+02</rscale>
<asrwt>0</asrwt>
<pdfrwt beam="2">  1        2 0.11792081E+00 0.42649260E+02</pdfrwt>
<pdfrwt beam="1">  1       -2 0.91273738E-04 0.42649260E+02</pdfrwt>
<totfact> 0.16535285E+06</totfact>
</mgrwt>
</event>
<event>
 4    1  0.4696545E-002  0.1498347E+03  0.7818608E-02  0.1200676E+00
         -2   -1    0    0  501    0 -0.00000000000E+00  0.00000000000E+00  0.76621933973E+01  0.76621938216E+01  0.25500000000E-02 0. -1.
          2   -1    0    0    0  501  0.00000000000E+00 -0.00000000000E+00 -0.73250731968E+03  0.73250731968E+03  0.25500000000E-02 0. -1.
          2    1    1    2    0  502  0.51443920754E+02  0.18500921820E+02 -0.10938307301E+03  0.12228416806E+03  0.25500000000E-02 0.  1.
         -2    1    1    2  502    0 -0.51443920754E+02 -0.18500921820E+02 -0.61546205327E+03  0.61788534544E+03  0.25500000000E-02 0.  1.
<mgrwt>
<rscale>  0 0.14983475E+03</rscale>
<asrwt>0</asrwt>
<pdfrwt beam="2">  1        2 0.11269338E+00 0.14983475E+03</pdfrwt>
<pdfrwt beam="1">  1       -2 0.11787996E-02 0.14983475E+03</pdfrwt>
<totfact> 0.62551071E+04</totfact>
</mgrwt>
</event>
<event>
 4    1  0.4696545E-002  0.4047675E+02  0.7818608E-02  0.1504732E+00
         -2   -1    0    0  501    0 -0.00000000000E+00  0.00000000000E+00  0.16356292222E+03  0.16356292224E+03  0.25500000000E-02 0.  1.
          2   -1    0    0    0  501  0.00000000000E+00 -0.00000000000E+00 -0.25041841289E+01  0.25041854272E+01  0.25500000000E-02 0.  1.
          2    1    1    2    0  502 -0.47041080212E+01 -0.19581834487E+02  0.72308541818E+02  0.75060656142E+02  0.25500000000E-02 0. -1.
         -2    1    1    2  502    0  0.47041080212E+01  0.19581834487E+02  0.88750196277E+02  0.91006451529E+02  0.25500000000E-02 0. -1.
<mgrwt>
<rscale>  0 0.40476748E+02</rscale>
<asrwt>0</asrwt>
<pdfrwt beam="2">  1        2 0.38525919E-03 0.40476748E+02</pdfrwt>
<pdfrwt beam="1">  1       -2 0.25163527E-01 0.40476748E+02</pdfrwt>
<totfact> 0.50877453E+05</totfact>
</mgrwt>
</event>
<event>
 4    1  0.4696545E-002  0.4684763E+02  0.7818608E-02  0.1463126E+00
          2   -1    0    0    0  501  0.00000000000E+00  0.00000000000E+00  0.21673643947E+02  0.21673644097E+02  0.25500000000E-02 0. -1.
         -2   -1    0    0  501    0 -0.00000000000E+00 -0.00000000000E+00 -0.25315317440E+02  0.25315317568E+02  0.25500000000E-02 0. -1.
          2    1    1    2    0  502 -0.21508345637E+02 -0.29836219758E+00 -0.11121199858E+02  0.24215264707E+02  0.25500000000E-02 0.  1.
         -2    1    1    2  502    0  0.21508345637E+02  0.29836219758E+00  0.74795263648E+01  0.22773696959E+02  0.25500000000E-02 0.  1.
<mgrwt>
<rscale>  0 0.46847633E+02</rscale>
<asrwt>0</asrwt>
<pdfrwt beam="1">  1        2 0.33344068E-02 0.46847633E+02</pdfrwt>
<pdfrwt beam="2">  1       -2 0.38946643E-02 0.46847633E+02</pdfrwt>
<totfact> 0.52952562E+05</totfact>
</mgrwt>
</event>
<event>
 4    1  0.4696545E-002  0.5081631E+02  0.7818608E-02  0.1440988E+00
          2   -1    0    0    0  501  0.00000000000E+00  0.00000000000E+00  0.74322447080E+03  0.74322447080E+03  0.25500000000E-02 0.  1.
         -2   -1    0    0  501    0 -0.00000000000E+00 -0.00000000000E+00 -0.86861096062E+00  0.86861470366E+00  0.25500000000E-02 0.  1.
          2    1    1    2    0  502  0.16037655374E+02 -0.19541145693E+02  0.40854303031E+03  0.40932440727E+03  0.25500000000E-02 0.  1.
         -2    1    1    2  502    0 -0.16037655374E+02  0.19541145693E+02  0.33381282952E+03  0.33476867823E+03  0.25500000000E-02 0.  1.
<mgrwt>
<rscale>  0 0.50816309E+02</rscale>
<asrwt>0</asrwt>
<pdfrwt beam="1">  1        2 0.11434210E+00 0.50816309E+02</pdfrwt>
<pdfrwt beam="2">  1       -2 0.13363289E-03 0.50816309E+02</pdfrwt>
<totfact> 0.10707191E+06</totfact>
</mgrwt>
</event>
<event>
 4    1  0.4696545E-002  0.5274092E+02  0.7818608E-02  0.1431095E+00
         -2   -1    0    0  501    0 -0.00000000000E+00  0.00000000000E+00  0.40195078450E+00  0.40195887310E+00  0.25500000000E-02 0. -1.
          2   -1    0    0    0  501  0.00000000000E+00 -0.00000000000E+00 -0.17300478502E+04  0.17300478502E+04  0.25500000000E-02 0. -1.
          2    1    1    2    0  502  0.12132069115E+02  0.18209056235E+02 -0.38189213735E+03  0.38251844584E+03  0.25500000000E-02 0.  1.
         -2    1    1    2  502    0 -0.12132069115E+02 -0.18209056235E+02 -0.13477537621E+04  0.13479313633E+04  0.25500000000E-02 0.  1.
<mgrwt>
<rscale>  0 0.52740917E+02</rscale>
<asrwt>0</asrwt>
<pdfrwt beam="2">  1        2 0.26615525E+00 0.52740917E+02</pdfrwt>
<pdfrwt beam="1">  1       -2 0.61840590E-04 0.52740917E+02</pdfrwt>
<totfact> 0.89702039E+05</totfact>
</mgrwt>
</event>
<event>
 4    1  0.4696545E-002  0.4452575E+02  0.7818608E-02  0.1477324E+00
         -2   -1    0    0  501    0 -0.00000000000E+00  0.00000000000E+00  0.11963515898E+03  0.11963515901E+03  0.25500000000E-02 0.  1.
          2   -1    0    0    0  501  0.00000000000E+00 -0.00000000000E+00 -0.41428913973E+01  0.41428921821E+01  0.25500000000E-02 0.  1.
          2    1    1    2    0  502 -0.22071441100E+02  0.28959271925E+01  0.58627891011E+02  0.62711757410E+02  0.25500000000E-02 0. -1.
         -2    1    1    2  502    0  0.22071441100E+02 -0.28959271925E+01  0.56864376574E+02  0.61066293781E+02  0.25500000000E-02 0. -1.
<mgrwt>
<rscale>  0 0.44525746E+02</rscale>
<asrwt>0</asrwt>
<pdfrwt beam="2">  1        2 0.63736792E-03 0.44525746E+02</pdfrwt>
<pdfrwt beam="1">  1       -2 0.18405410E-01 0.44525746E+02</pdfrwt>
<totfact> 0.44613522E+05</totfact>
</mgrwt>
</event>
<event>
 4    1  0.4696545E-002  0.9902930E+02  0.7818608E-02  0.1282351E+00
          2   -1    0    0    0  501  0.00000000000E+00  0.00000000000E+00  0.15734541885E+04  0.15734541885E+04  0.25500000000E-02 0.  1.
         -2   -1    0    0  501    0 -0.00000000000E+00 -0.00000000000E+00 -0.15581633834E+01  0.15581654699E+01  0.25500000000E-02 0.  1.
          2    1    1    2    0  502 -0.26244996086E+01  0.49314796627E+02  0.72890606106E+03  0.73057708904E+03  0.25500000000E-02 0. -1.
         -2    1    1    2  502    0  0.26244996086E+01 -0.49314796627E+02  0.84298996402E+03  0.84443526490E+03  0.25500000000E-02 0. -1.
<mgrwt>
<rscale>  0 0.99029296E+02</rscale>
<asrwt>0</asrwt>
<pdfrwt beam="1">  1        2 0.24206946E+00 0.99029296E+02</pdfrwt>
<pdfrwt beam="2">  1       -2 0.23971802E-03 0.99029296E+02</pdfrwt>
<totfact> 0.18591447E+05</totfact>
</mgrwt>
</event>
<event>
 4    1  0.4696545E-002  0.6772400E+02  0.7818608E-02  0.1368008E+00
         -2   -1    0    0  501    0 -0.00000000000E+00  0.00000000000E+00  0.35687634130E+03  0.35687634130E+03  0.25500000000E-02 0.  1.
          2   -1    0    0    0  501  0.00000000000E+00 -0.00000000000E+00 -0.32129752640E+01  0.32129762759E+01  0.25500000000E-02 0.  1.
          2    1    1    2    0  502  0.21847139299E+02 -0.23698101312E+02  0.12164285767E+03  0.12584070220E+03  0.25500000000E-02 0. -1.
         -2    1    1    2  502    0 -0.21847139299E+02  0.23698101312E+02  0.23202050836E+03  0.23424861538E+03  0.25500000000E-02 0. -1.
<mgrwt>
<rscale>  0 0.67724000E+02</rscale>
<asrwt>0</asrwt>
<pdfrwt beam="2">  1        2 0.49430408E-03 0.67724000E+02</pdfrwt>
<pdfrwt beam="1">  1       -2 0.54904040E-01 0.67724000E+02</pdfrwt>
<totfact> 0.98369708E+04</totfact>
</mgrwt>
</event>
<event>
 4    1  0.4696545E-002  0.9399678E+02  0.7818608E-02  0.1293452E+00
         -2   -1    0    0  501    0 -0.00000000000E+00  0.00000000000E+00  0.18607647781E+01  0.18607665254E+01  0.25500000000E-02 0.  1.
          2   -1    0    0    0  501  0.00000000000E+00 -0.00000000000E+00 -0.11870644211E+04  0.11870644211E+04  0.25500000000E-02 0.  1.
          2    1    1    2    0  502 -0.26811747660E+02 -0.36494569131E+02 -0.43354869037E+03  0.43590731850E+03  0.25500000000E-02 0.  1.
         -2    1    1    2  502    0  0.26811747660E+02  0.36494569131E+02 -0.75165496597E+03  0.75301786915E+03  0.25500000000E-02 0.  1.
<mgrwt>
<rscale>  0 0.93996781E+02</rscale>
<asrwt>0</asrwt>
<pdfrwt beam="2">  1        2 0.18262469E+00 0.93996781E+02</pdfrwt>
<pdfrwt beam="1">  1       -2 0.28627259E-03 0.93996781E+02</pdfrwt>
<totfact> 0.22975557E+05</totfact>
</mgrwt>
</event>
<event>
 4    1  0.4696545E-002  0.4407667E+02  0.7818608E-02  0.1480189E+00
          2   -1    0    0    0  501  0.00000000000E+00  0.00000000000E+00  0.34710555519E+03  0.34710555520E+03  0.25500000000E-02 0.  1.
         -2   -1    0    0  501    0 -0.00000000000E+00 -0.00000000000E+00 -0.13992509091E+01  0.13992532327E+01  0.25500000000E-02 0.  1.
          2    1    1    2    0  502 -0.10785212998E+02  0.18934545656E+02  0.14680833034E+03  0.14841672312E+03  0.25500000000E-02 0. -1.
         -2    1    1    2  502    0  0.10785212998E+02 -0.18934545656E+02  0.19889797395E+03  0.20008808532E+03  0.25500000000E-02 0. -1.
<mgrwt>
<rscale>  0 0.44076668E+02</rscale>
<asrwt>0</asrwt>
<pdfrwt beam="1">  1        2 0.53400932E-01 0.44076668E+02</pdfrwt>
<pdfrwt beam="2">  1       -2 0.21526924E-03 0.44076668E+02</pdfrwt>
<totfact> 0.12143921E+06</totfact>
</mgrwt>
</event>
<event>
 4    1  0.4696545E-002  0.4714877E+02  0.7818608E-02  0.1461356E+00
         -2   -1    0    0  501    0 -0.00000000000E+00  0.00000000000E+00  0.52192840489E+02  0.52192840551E+02  0.25500000000E-02 0. -1.
          2   -1    0    0    0  501  0.00000000000E+00 -0.00000000000E+00 -0.10648044991E+02  0.10648045296E+02  0.25500000000E-02 0. -1.
          2    1    1    2    0  502  0.17217738204E+02 -0.15039885435E+02  0.13103976931E+02  0.26350766226E+02  0.25500000000E-02 0.  1.
         -2    1    1    2  502    0 -0.17217738204E+02  0.15039885435E+02  0.28440818566E+02  0.36490119621E+02  0.25500000000E-02 0.  1.
<mgrwt>
<rscale>  0 0.47148774E+02</rscale>
<asrwt>0</asrwt>
<pdfrwt beam="2">  1        2 0.16381608E-02 0.47148774E+02</pdfrwt>
<pdfrwt beam="1">  1       -2 0.80296679E-02 0.47148774E+02</pdfrwt>
<totfact> 0.46582592E+05</totfact>
</mgrwt>
</event>
<event>
 4    1  0.4696545E-002  0.6874627E+02  0.7818608E-02  0.1364409E+00
          2   -1    0    0    0  501  0.00000000000E+00  0.00000000000E+00  0.28380869797E+01  0.28380881253E+01  0.25500000000E-02 0.  1.
         -2   -1    0    0  501    0 -0.00000000000E+00 -0.00000000000E+00 -0.41630583264E+03  0.41630583265E+03  0.25500000000E-02 0.  1.
          2    1    1    2    0  502 -0.22939130451E+02  0.12494924294E+02 -0.34295517887E+03  0.34394851585E+03  0.25500000000E-02 0.  1.
         -2    1    1    2  502    0  0.22939130451E+02 -0.12494924294E+02 -0.70512566799E+02  0.75195404927E+02  0.25500000000E-02 0.  1.
<mgrwt>
<rscale>  0 0.68746270E+02</rscale>
<asrwt>0</asrwt>
<pdfrwt beam="1">  1        2 0.43662919E-03 0.68746270E+02</pdfrwt>
<pdfrwt beam="2">  1       -2 0.64047003E-01 0.68746270E+02</pdfrwt>
<totfact> 0.85610997E+04</totfact>
</mgrwt>
</event>
<event>
 4    1  0.4696545E-002  0.1176270E+03  0.7818608E-02  0.1247064E+00
          2   -1    0    0    0  501  0.00000000000E+00  0.00000000000E+00  0.16875553421E+02  0.16875553613E+02  0.25500000000E-02 0.  1.
         -2   -1    0    0  501    0 -0.00000000000E+00 -0.00000000000E+00 -0.20497286370E+03  0.20497286371E+03  0.25500000000E-02 0.  1.
          2    1    1    2    0  502 -0.37842495858E+02  0.37301366657E+02 -0.46500283695E+02  0.70609651164E+02  0.25500000000E-02 0. -1.
         -2    1    1    2  502    0  0.37842495858E+02 -0.37301366657E+02 -0.14159702658E+03  0.15123876616E+03  0.25500000000E-02 0. -1.
<mgrwt>
<rscale>  0 0.11762705E+03</rscale>
<asrwt>0</asrwt>
<pdfrwt beam="1">  1        2 0.25962392E-02 0.11762705E+03</pdfrwt>
<pdfrwt beam="2">  1       -2 0.31534285E-01 0.11762705E+03</pdfrwt>
<totfact> 0.32101479E+04</totfact>
</mgrwt>
</event>
<event>
 4    1  0.4696545E-002  0.4547423E+02  0.7818608E-02  0.1471403E+00
          2   -1    0    0    0  501  0.00000000000E+00  0.00000000000E+00  0.85140142683E+01  0.85140146502E+01  0.25500000000E-02 0.  1.
         -2   -1    0    0  501    0 -0.00000000000E+00 -0.00000000000E+00 -0.60720645801E+02  0.60720645854E+02  0.25500000000E-02 0.  1.
          2    1    1    2    0  502  0.18011503610E+02  0.13636099430E+02 -0.30020318108E+02  0.37570959208E+02  0.25500000000E-02 0. -1.
         -2    1    1    2  502    0 -0.18011503610E+02 -0.13636099430E+02 -0.22186313424E+02  0.31663701297E+02  0.25500000000E-02 0. -1.
<mgrwt>
<rscale>  0 0.45474233E+02</rscale>
<asrwt>0</asrwt>
<pdfrwt beam="1">  1        2 0.13098484E-02 0.45474233E+02</pdfrwt>
<pdfrwt beam="2">  1       -2 0.93416376E-02 0.45474233E+02</pdfrwt>
<totfact> 0.49451866E+05</totfact>
</mgrwt>
</event>
<event>
 4    1  0.4696545E-002  0.4462552E+02  0.7818608E-02  0.1476693E+00
         -2   -1    0    0  501    0 -0.00000000000E+00  0.00000000000E+00  0.40153439062E+00  0.40154248760E+00  0.25500000000E-02 0.  1.
          2   -1    0    0    0  501  0.00000000000E+00 -0.00000000000E+00 -0.12398796781E+04  0.12398796781E+04  0.25500000000E-02 0.  1.
          2    1    1    2    0  502 -0.20304298878E+01 -0.22217435578E+02 -0.62945704770E+03  0.62985229380E+03  0.25500000000E-02 0. -1.
         -2    1    1    2  502    0  0.20304298878E+01  0.22217435578E+02 -0.61002109603E+03  0.61042892682E+03  0.25500000000E-02 0. -1.
<mgrwt>
<rscale>  0 0.44625524E+02</rscale>
<asrwt>0</asrwt>
<pdfrwt beam="2">  1        2 0.19074766E+00 0.44625524E+02</pdfrwt>
<pdfrwt beam="1">  1       -2 0.61776137E-04 0.44625524E+02</pdfrwt>
<totfact> 0.15174326E+06</totfact>
</mgrwt>
</event>
<event>
 4    1  0.4696545E-002  0.4274837E+02  0.7818608E-02  0.1488908E+00
          2   -1    0    0    0  501  0.00000000000E+00  0.00000000000E+00  0.36461680823E+02  0.36461680912E+02  0.25500000000E-02 0. -1.
         -2   -1    0    0  501    0 -0.00000000000E+00 -0.00000000000E+00 -0.12529748788E+02  0.12529749047E+02  0.25500000000E-02 0. -1.
          2    1    1    2    0  502  0.20911505664E+02  0.34272334957E+01  0.87614090698E+01  0.22930313865E+02  0.25500000000E-02 0.  1.
         -2    1    1    2  502    0 -0.20911505664E+02 -0.34272334957E+01  0.15170522965E+02  0.26061116094E+02  0.25500000000E-02 0.  1.
<mgrwt>
<rscale>  0 0.42748367E+02</rscale>
<asrwt>0</asrwt>
<pdfrwt beam="1">  1        2 0.56094894E-02 0.42748367E+02</pdfrwt>
<pdfrwt beam="2">  1       -2 0.19276537E-02 0.42748367E+02</pdfrwt>
<totfact> 0.72479457E+05</totfact>
</mgrwt>
</event>
<event>
 4    1  0.4696545E-002  0.5027685E+02  0.7818608E-02  0.1443854E+00
         -2   -1    0    0  501    0 -0.00000000000E+00  0.00000000000E+00  0.18623177453E+01  0.18623194911E+01  0.25500000000E-02 0. -1.
          2   -1    0    0    0  501  0.00000000000E+00 -0.00000000000E+00 -0.33932992323E+03  0.33932992324E+03  0.25500000000E-02 0. -1.
          2    1    1    2    0  502  0.23776747241E+02  0.48215820032E+01 -0.21341975836E+03  0.21479426116E+03  0.25500000000E-02 0. -1.
         -2    1    1    2  502    0 -0.23776747241E+02 -0.48215820032E+01 -0.12404784713E+03  0.12639798157E+03  0.25500000000E-02 0. -1.
<mgrwt>
<rscale>  0 0.50276851E+02</rscale>
<asrwt>0</asrwt>
<pdfrwt beam="2">  1        2 0.52204555E-01 0.50276851E+02</pdfrwt>
<pdfrwt beam="1">  1       -2 0.28651083E-03 0.50276851E+02</pdfrwt>
<totfact> 0.87093204E+05</totfact>
</mgrwt>
</event>
<event>
 4    1  0.4696545E-002  0.6164487E+02  0.7818608E-02  0.1391056E+00
          2   -1    0    0    0  501  0.00000000000E+00  0.00000000000E+00  0.11303570443E+04  0.11303570443E+04  0.25500000000E-02 0.  1.
         -2   -1    0    0  501    0 -0.00000000000E+00 -0.00000000000E+00 -0.84046048764E+00  0.84046435604E+00  0.25500000000E-02 0.  1.
          2    1    1    2    0  502  0.93327287332E+01  0.29172084027E+02  0.50142393746E+03  0.50235851279E+03  0.25500000000E-02 0.  1.
         -2    1    1    2  502    0 -0.93327287332E+01 -0.29172084027E+02  0.62809264634E+03  0.62883899586E+03  0.25500000000E-02 0.  1.
<mgrwt>
<rscale>  0 0.61644874E+02</rscale>
<asrwt>0</asrwt>
<pdfrwt beam="1">  1        2 0.17390185E+00 0.61644874E+02</pdfrwt>
<pdfrwt beam="2">  1       -2 0.12930134E-03 0.61644874E+02</pdfrwt>
<totfact> 0.68609894E+05</totfact>
</mgrwt>
</event>
<event>
 4    1  0.4696545E-002  0.9038715E+02  0.7818608E-02  0.1301917E+00
         -2   -1    0    0  501    0 -0.00000000000E+00  0.00000000000E+00  0.33284147626E+03  0.33284147627E+03  0.25500000000E-02 0.  1.
          2   -1    0    0    0  501  0.00000000000E+00 -0.00000000000E+00 -0.61364323657E+01  0.61364328955E+01  0.25500000000E-02 0.  1.
          2    1    1    2    0  502 -0.10324059652E+02 -0.33778998159E+02  0.26908488335E+03  0.27139322279E+03  0.25500000000E-02 0.  1.
         -2    1    1    2  502    0  0.10324059652E+02  0.33778998159E+02  0.57620160547E+02  0.67584686374E+02  0.25500000000E-02 0.  1.
<mgrwt>
<rscale>  0 0.90387152E+02</rscale>
<asrwt>0</asrwt>
<pdfrwt beam="2">  1        2 0.94406644E-03 0.90387152E+02</pdfrwt>
<pdfrwt beam="1">  1       -2 0.51206387E-01 0.90387152E+02</pdfrwt>
<totfact> 0.49098497E+04</totfact>
</mgrwt>
</event>
<event>
 4    1  0.4696545E-002  0.5308210E+02  0.7818608E-02  0.1429393E+00
         -2   -1    0    0  501    0 -0.00000000000E+00  0.00000000000E+00  0.85761770498E+02  0.85761770536E+02  0.25500000000E-02 0. -1.
          2   -1    0    0    0  501  0.00000000000E+00 -0.00000000000E+00 -0.82137688816E+01  0.82137692774E+01  0.25500000000E-02 0. -1.
          2    1    1    2    0  502  0.18948123168E+02 -0.17522421368E+02  0.49739042389E+02  0.56036050597E+02  0.25500000000E-02 0. -1.
         -2    1    1    2  502    0 -0.18948123168E+02  0.17522421368E+02  0.27808959227E+02  0.37939489216E+02  0.25500000000E-02 0. -1.
<mgrwt>
<rscale>  0 0.53082102E+02</rscale>
<asrwt>0</asrwt>
<pdfrwt beam="2">  1        2 0.12636568E-02 0.53082102E+02</pdfrwt>
<pdfrwt beam="1">  1       -2 0.13194119E-01 0.53082102E+02</pdfrwt>
<totfact> 0.31657900E+05</totfact>
</mgrwt>
</event>
<event>
 4    1  0.4696545E-002  0.4352313E+02  0.7818608E-02  0.1483778E+00
          2   -1    0    0    0  501  0.00000000000E+00  0.00000000000E+00  0.17039930399E+02  0.17039930590E+02  0.25500000000E-02 0. -1.
         -2   -1    0    0  501    0 -0.00000000000E+00 -0.00000000000E+00 -0.27791533988E+02  0.27791534105E+02  0.25500000000E-02 0. -1.
          2    1    1    2    0  502 -0.20507653111E+02  0.71351115312E+01 -0.38858938538E+01  0.22058418580E+02  0.25500000000E-02 0.  1.
         -2    1    1    2  502    0  0.20507653111E+02 -0.71351115312E+01 -0.68657097349E+01  0.22773046115E+02  0.25500000000E-02 0.  1.
<mgrwt>
<rscale>  0 0.43523135E+02</rscale>
<asrwt>0</asrwt>
<pdfrwt beam="1">  1        2 0.26215278E-02 0.43523135E+02</pdfrwt>
<pdfrwt beam="2">  1       -2 0.42756206E-02 0.43523135E+02</pdfrwt>
<totfact> 0.62033545E+05</totfact>
</mgrwt>
</event>
<event>
 4    1  0.4696545E-002  0.6278622E+02  0.7818608E-02  0.1386498E+00
          2   -1    0    0    0  501  0.00000000000E+00  0.00000000000E+00  0.18229975531E+04  0.18229975531E+04  0.25500000000E-02 0.  1.
         -2   -1    0    0  501    0 -0.00000000000E+00 -0.00000000000E+00 -0.54060521084E+00  0.54061122490E+00  0.25500000000E-02 0.  1.
          2    1    1    2    0  502  0.23639526542E+02 -0.33656759303E+01  0.15031571069E+04  0.15033467474E+04  0.25500000000E-02 0.  1.
         -2    1    1    2  502    0 -0.23639526542E+02  0.33656759303E+01  0.31929984098E+03  0.32019141689E+03  0.25500000000E-02 0.  1.
<mgrwt>
<rscale>  0 0.62786223E+02</rscale>
<asrwt>0</asrwt>
<pdfrwt beam="1">  1        2 0.28046225E+00 0.62786223E+02</pdfrwt>
<pdfrwt beam="2">  1       -2 0.83170172E-04 0.62786223E+02</pdfrwt>
<totfact> 0.55864966E+05</totfact>
</mgrwt>
</event>
<event>
 4    1  0.4696545E-002  0.5720801E+02  0.7818608E-02  0.1409936E+00
         -2   -1    0    0  501    0 -0.00000000000E+00  0.00000000000E+00  0.22100486506E+02  0.22100486653E+02  0.25500000000E-02 0. -1.
          2   -1    0    0    0  501  0.00000000000E+00 -0.00000000000E+00 -0.37021314011E+02  0.37021314099E+02  0.25500000000E-02 0. -1.
          2    1    1    2    0  502  0.14849230399E+02  0.18981095294E+02 -0.23383893391E+02  0.33579578596E+02  0.25500000000E-02 0.  1.
         -2    1    1    2  502    0 -0.14849230399E+02 -0.18981095294E+02  0.84630658858E+01  0.25542222157E+02  0.25500000000E-02 0.  1.
<mgrwt>
<rscale>  0 0.57208008E+02</rscale>
<asrwt>0</asrwt>
<pdfrwt beam="2">  1        2 0.56955868E-02 0.57208008E+02</pdfrwt>
<pdfrwt beam="1">  1       -2 0.34000749E-02 0.57208008E+02</pdfrwt>
<totfact> 0.34119558E+05</totfact>
</mgrwt>
</event>
<event>
 4    1  0.4696545E-002  0.4572563E+02  0.7818608E-02  0.1469862E+00
          2   -1    0    0    0  501  0.00000000000E+00  0.00000000000E+00  0.40407880098E+01  0.40407888144E+01  0.25500000000E-02 0. -1.
         -2   -1    0    0  501    0 -0.00000000000E+00 -0.00000000000E+00 -0.12935798781E+03  0.12935798784E+03  0.25500000000E-02 0. -1.
          2    1    1    2    0  502 -0.17625456043E+02 -0.14410459083E+02 -0.68771333550E+02  0.72441799787E+02  0.25500000000E-02 0. -1.
         -2    1    1    2  502    0  0.17625456043E+02  0.14410459083E+02 -0.56545866255E+02  0.60956976867E+02  0.25500000000E-02 0. -1.
<mgrwt>
<rscale>  0 0.45725628E+02</rscale>
<asrwt>0</asrwt>
<pdfrwt beam="1">  1        2 0.62165986E-03 0.45725628E+02</pdfrwt>
<pdfrwt beam="2">  1       -2 0.19901226E-01 0.45725628E+02</pdfrwt>
<totfact> 0.40887563E+05</totfact>
</mgrwt>
</event>
<event>
 4    1  0.4696545E-002  0.4616889E+02  0.7818608E-02  0.1467174E+00
          2   -1    0    0    0  501  0.00000000000E+00  0.00000000000E+00  0.92534495230E+02  0.92534495265E+02  0.25500000000E-02 0. -1.
         -2   -1    0    0  501    0 -0.00000000000E+00 -0.00000000000E+00 -0.57588419587E+01  0.57588425232E+01  0.25500000000E-02 0. -1.
          2    1    1    2    0  502  0.34750988575E+01  0.21933778693E+02  0.29969312923E+02  0.37300491731E+02  0.25500000000E-02 0. -1.
         -2    1    1    2  502    0 -0.34750988575E+01 -0.21933778693E+02  0.56806340349E+02  0.60992846057E+02  0.25500000000E-02 0. -1.
<mgrwt>
<rscale>  0 0.46168888E+02</rscale>
<asrwt>0</asrwt>
<pdfrwt beam="1">  1        2 0.14236076E-01 0.46168888E+02</pdfrwt>
<pdfrwt beam="2">  1       -2 0.88597573E-03 0.46168888E+02</pdfrwt>
<totfact> 0.71771312E+05</totfact>
</mgrwt>
</event>
<event>
 4    1  0.4696545E-002  0.6349690E+02  0.7818608E-02  0.1383716E+00
          2   -1    0    0    0  501  0.00000000000E+00  0.00000000000E+00  0.26476412871E+04  0.26476412871E+04  0.25500000000E-02 0. -1.
         -2   -1    0    0  501    0 -0.00000000000E+00 -0.00000000000E+00 -0.38069836445E+00  0.38070690458E+00  0.25500000000E-02 0. -1.
          2    1    1    2    0  502 -0.30930579761E+02 -0.23006088477E+01  0.16063840812E+04  0.16066834815E+04  0.25500000000E-02 0.  1.
         -2    1    1    2  502    0  0.30930579761E+02  0.23006088477E+01  0.10408765075E+04  0.10413385125E+04  0.25500000000E-02 0.  1.
<mgrwt>
<rscale>  0 0.63496898E+02</rscale>
<asrwt>0</asrwt>
<pdfrwt beam="1">  1        2 0.40731473E+00 0.63496898E+02</pdfrwt>
<pdfrwt beam="2">  1       -2 0.58571751E-04 0.63496898E+02</pdfrwt>
<totfact> 0.34596201E+05</totfact>
</mgrwt>
</event>
<event>
 4    1  0.4696545E-002  0.6074229E+02  0.7818608E-02  0.1394743E+00
         -2   -1    0    0  501    0 -0.00000000000E+00  0.00000000000E+00  0.71902387006E+00  0.71902839180E+00  0.25500000000E-02 0.  1.
          2   -1    0    0    0  501  0.00000000000E+00 -0.00000000000E+00 -0.12828552117E+04  0.12828552117E+04  0.25500000000E-02 0.  1.
          2    1    1    2    0  502  0.48413596703E+01 -0.29981645148E+02 -0.64660304570E+03  0.64731587075E+03  0.25500000000E-02 0.  1.
         -2    1    1    2  502    0 -0.48413596703E+01  0.29981645148E+02 -0.63553314211E+03  0.63625836933E+03  0.25500000000E-02 0.  1.
<mgrwt>
<rscale>  0 0.60742289E+02</rscale>
<asrwt>0</asrwt>
<pdfrwt beam="2">  1        2 0.19736051E+00 0.60742289E+02</pdfrwt>
<pdfrwt beam="1">  1       -2 0.11062043E-03 0.60742289E+02</pdfrwt>
<totfact> 0.70215586E+05</totfact>
</mgrwt>
</event>
<event>
 4    1  0.4696545E-002  0.6244994E+02  0.7818608E-02  0.1387829E+00
          2   -1    0    0    0  501  0.00000000000E+00  0.00000000000E+00  0.10977148092E+04  0.10977148092E+04  0.25500000000E-02 0. -1.
         -2   -1    0    0  501    0 -0.00000000000E+00 -0.00000000000E+00 -0.88820580390E+00  0.88820946436E+00  0.25500000000E-02 0. -1.
          2    1    1    2    0  502 -0.80559645636E+01  0.28495591054E+02  0.37417389942E+03  0.37534384808E+03  0.25500000000E-02 0.  1.
         -2    1    1    2  502    0  0.80559645636E+01 -0.28495591054E+02  0.72265270398E+03  0.72325917059E+03  0.25500000000E-02 0.  1.
<mgrwt>
<rscale>  0 0.62449938E+02</rscale>
<asrwt>0</asrwt>
<pdfrwt beam="1">  1        2 0.16888063E+00 0.62449938E+02</pdfrwt>
<pdfrwt beam="2">  1       -2 0.13664617E-03 0.62449938E+02</pdfrwt>
<totfact> 0.66473984E+05</totfact>
</mgrwt>
</event>
<event>
 4    1  0.4696545E-002  0.4778546E+02  0.7818608E-02  0.1457666E+00
          2   -1    0    0    0  501  0.00000000000E+00  0.00000000000E+00  0.22360575343E+02  0.22360575489E+02  0.25500000000E-02 0.  1.
         -2   -1    0    0  501    0 -0.00000000000E+00 -0.00000000000E+00 -0.25529872069E+02  0.25529872196E+02  0.25500000000E-02 0.  1.
          2    1    1    2    0  502 -0.23624936335E+02  0.84280928056E+00  0.18891872417E+01  0.23715332155E+02  0.25500000000E-02 0. -1.
         -2    1    1    2  502    0  0.23624936335E+02 -0.84280928056E+00 -0.50584839669E+01  0.24175115529E+02  0.25500000000E-02 0. -1.
<mgrwt>
<rscale>  0 0.47785464E+02</rscale>
<asrwt>0</asrwt>
<pdfrwt beam="1">  1        2 0.34400885E-02 0.47785464E+02</pdfrwt>
<pdfrwt beam="2">  1       -2 0.39276727E-02 0.47785464E+02</pdfrwt>
<totfact> 0.50502102E+05</totfact>
</mgrwt>
</event>
<event>
 4    1  0.4696545E-002  0.6173140E+02  0.7818608E-02  0.1390706E+00
         -2   -1    0    0  501    0 -0.00000000000E+00  0.00000000000E+00  0.32092146526E+02  0.32092146627E+02  0.25500000000E-02 0. -1.
          2   -1    0    0    0  501  0.00000000000E+00 -0.00000000000E+00 -0.29686124706E+02  0.29686124816E+02  0.25500000000E-02 0. -1.
          2    1    1    2    0  502  0.66903958158E+01 -0.20666502094E+02  0.23147399307E+02  0.31743783741E+02  0.25500000000E-02 0. -1.
         -2    1    1    2  502    0 -0.66903958158E+01  0.20666502094E+02 -0.20741377487E+02  0.30034487703E+02  0.25500000000E-02 0. -1.
<mgrwt>
<rscale>  0 0.61731401E+02</rscale>
<asrwt>0</asrwt>
<pdfrwt beam="2">  1        2 0.45670961E-02 0.61731401E+02</pdfrwt>
<pdfrwt beam="1">  1       -2 0.49372533E-02 0.61731401E+02</pdfrwt>
<totfact> 0.26697683E+05</totfact>
</mgrwt>
</event>
<event>
 4    1  0.4696545E-002  0.5789961E+02  0.7818608E-02  0.1406864E+00
         -2   -1    0    0  501    0 -0.00000000000E+00  0.00000000000E+00  0.22234742377E+03  0.22234742379E+03  0.25500000000E-02 0.  1.
          2   -1    0    0    0  501  0.00000000000E+00 -0.00000000000E+00 -0.37692860567E+01  0.37692869193E+01  0.25500000000E-02 0.  1.
          2    1    1    2    0  502  0.23359806729E+02 -0.16441449402E+02  0.12764380277E+03  0.13080115527E+03  0.25500000000E-02 0. -1.
         -2    1    1    2  502    0 -0.23359806729E+02  0.16441449402E+02  0.90934334943E+02  0.95315555430E+02  0.25500000000E-02 0. -1.
<mgrwt>
<rscale>  0 0.57899608E+02</rscale>
<asrwt>0</asrwt>
<pdfrwt beam="2">  1        2 0.57989047E-03 0.57899608E+02</pdfrwt>
<pdfrwt beam="1">  1       -2 0.34207282E-01 0.57899608E+02</pdfrwt>
<totfact> 0.18742162E+05</totfact>
</mgrwt>
</event>
<event>
 4    1  0.4696545E-002  0.4649910E+02  0.7818608E-02  0.1465194E+00
         -2   -1    0    0  501    0 -0.00000000000E+00  0.00000000000E+00  0.26200923753E+00  0.26202164615E+00  0.25500000000E-02 0. -1.
          2   -1    0    0    0  501  0.00000000000E+00 -0.00000000000E+00 -0.20630137926E+04  0.20630137926E+04  0.25500000000E-02 0. -1.
          2    1    1    2    0  502 -0.54011782193E+01  0.21532440682E+02 -0.72484414270E+03  0.72518401109E+03  0.25500000000E-02 0. -1.
         -2    1    1    2  502    0  0.54011782193E+01 -0.21532440682E+02 -0.13379076407E+04  0.13380918032E+04  0.25500000000E-02 0. -1.
<mgrwt>
<rscale>  0 0.46499096E+02</rscale>
<asrwt>0</asrwt>
<pdfrwt beam="2">  1        2 0.31737373E+00 0.46499096E+02</pdfrwt>
<pdfrwt beam="1">  1       -2 0.40311720E-04 0.46499096E+02</pdfrwt>
<totfact> 0.10712709E+06</totfact>
</mgrwt>
</event>
<event>
 4    1  0.4696545E-002  0.5138814E+02  0.7818608E-02  0.1437995E+00
         -2   -1    0    0  501    0 -0.00000000000E+00  0.00000000000E+00  0.16750368760E+02  0.16750368954E+02  0.25500000000E-02 0.  1.
          2   -1    0    0    0  501  0.00000000000E+00 -0.00000000000E+00 -0.39413179065E+02  0.39413179148E+02  0.25500000000E-02 0.  1.
          2    1    1    2    0  502 -0.14365151675E+02  0.15868682780E+02  0.42025074441E+01  0.21813613894E+02  0.25500000000E-02 0.  1.
         -2    1    1    2  502    0  0.14365151675E+02 -0.15868682780E+02 -0.26865317749E+02  0.34349934208E+02  0.25500000000E-02 0.  1.
<mgrwt>
<rscale>  0 0.51388142E+02</rscale>
<asrwt>0</asrwt>
<pdfrwt beam="2">  1        2 0.60635660E-02 0.51388142E+02</pdfrwt>
<pdfrwt beam="1">  1       -2 0.25769798E-02 0.51388142E+02</pdfrwt>
<totfact> 0.45760870E+05</totfact>
</mgrwt>
</event>
<event>
 4    1  0.4696545E-002  0.6277654E+02  0.7818608E-02  0.1386536E+00
         -2   -1    0    0  501    0 -0.00000000000E+00  0.00000000000E+00  0.31010016419E+01  0.31010026903E+01  0.25500000000E-02 0. -1.
          2   -1    0    0    0  501  0.00000000000E+00 -0.00000000000E+00 -0.31771129428E+03  0.31771129429E+03  0.25500000000E-02 0. -1.
          2    1    1    2    0  502  0.17467763377E+02 -0.10091524814E+02 -0.28019496185E+03  0.28092023474E+03  0.25500000000E-02 0.  1.
         -2    1    1    2  502    0 -0.17467763377E+02  0.10091524814E+02 -0.34415330785E+02  0.39892062243E+02  0.25500000000E-02 0.  1.
<mgrwt>
<rscale>  0 0.62776537E+02</rscale>
<asrwt>0</asrwt>
<pdfrwt beam="2">  1        2 0.48878635E-01 0.62776537E+02</pdfrwt>
<pdfrwt beam="1">  1       -2 0.47707751E-03 0.62776537E+02</pdfrwt>
<totfact> 0.48618543E+05</totfact>
</mgrwt>
</event>
<event>
 4    1  0.4696545E-002  0.4825187E+02  0.7818608E-02  0.1455005E+00
         -2   -1    0    0  501    0 -0.00000000000E+00  0.00000000000E+00  0.19122854449E+03  0.19122854450E+03  0.25500000000E-02 0.  1.
          2   -1    0    0    0  501  0.00000000000E+00 -0.00000000000E+00 -0.30437953823E+01  0.30437964505E+01  0.25500000000E-02 0.  1.
          2    1    1    2    0  502 -0.18032672811E+01 -0.20410445247E+02  0.42811839719E+02  0.47462529165E+02  0.25500000000E-02 0. -1.
         -2    1    1    2  502    0  0.18032672811E+01  0.20410445247E+02  0.14537290938E+03  0.14680981179E+03  0.25500000000E-02 0. -1.
<mgrwt>
<rscale>  0 0.48251867E+02</rscale>
<asrwt>0</asrwt>
<pdfrwt beam="2">  1        2 0.46827616E-03 0.48251867E+02</pdfrwt>
<pdfrwt beam="1">  1       -2 0.29419785E-01 0.48251867E+02</pdfrwt>
<totfact> 0.31328802E+05</totfact>
</mgrwt>
</event>
<event>
 4    1  0.4696545E-002  0.4893091E+02  0.7818608E-02  0.1451195E+00
          2   -1    0    0    0  501  0.00000000000E+00  0.00000000000E+00  0.68959660394E+03  0.68959660395E+03  0.25500000000E-02 0. -1.
         -2   -1    0    0  501    0 -0.00000000000E+00 -0.00000000000E+00 -0.86798154627E+00  0.86798529202E+00  0.25500000000E-02 0. -1.
          2    1    1    2    0  502  0.14358300243E+02  0.19804166761E+02  0.33817139469E+03  0.33905494835E+03  0.25500000000E-02 0. -1.
         -2    1    1    2  502    0 -0.14358300243E+02 -0.19804166761E+02  0.35055722770E+03  0.35140964089E+03  0.25500000000E-02 0. -1.
<mgrwt>
<rscale>  0 0.48930907E+02</rscale>
<asrwt>0</asrwt>
<pdfrwt beam="1">  1        2 0.10609231E+00 0.48930907E+02</pdfrwt>
<pdfrwt beam="2">  1       -2 0.13353525E-03 0.48930907E+02</pdfrwt>
<totfact> 0.11566911E+06</totfact>
</mgrwt>
</event>
<event>
 4    1  0.4696545E-002  0.6085968E+02  0.7818608E-02  0.1394259E+00
          2   -1    0    0    0  501  0.00000000000E+00  0.00000000000E+00  0.75354676387E+03  0.75354676388E+03  0.25500000000E-02 0.  1.
         -2   -1    0    0  501    0 -0.00000000000E+00 -0.00000000000E+00 -0.12288209122E+01  0.12288235580E+01  0.25500000000E-02 0.  1.
          2    1    1    2    0  502 -0.16402282944E+02 -0.14415359819E+02  0.63899075789E+03  0.63936376669E+03  0.25500000000E-02 0. -1.
         -2    1    1    2  502    0  0.16402282944E+02  0.14415359819E+02  0.11332718507E+03  0.11541182074E+03  0.25500000000E-02 0. -1.
<mgrwt>
<rscale>  0 0.60859675E+02</rscale>
<asrwt>0</asrwt>
<pdfrwt beam="1">  1        2 0.11593020E+00 0.60859675E+02</pdfrwt>
<pdfrwt beam="2">  1       -2 0.18904968E-03 0.60859675E+02</pdfrwt>
<totfact> 0.68415030E+05</totfact>
</mgrwt>
</event>
<event>
 4    1  0.4696545E-002  0.8087703E+02  0.7818608E-02  0.1326581E+00
         -2   -1    0    0  501    0 -0.00000000000E+00  0.00000000000E+00  0.39143150539E+01  0.39143158845E+01  0.25500000000E-02 0. -1.
          2   -1    0    0    0  501  0.00000000000E+00 -0.00000000000E+00 -0.41776742658E+03  0.41776742659E+03  0.25500000000E-02 0. -1.
          2    1    1    2    0  502 -0.25395811244E+02  0.12491094070E+02 -0.56328133730E+02  0.63038347978E+02  0.25500000000E-02 0. -1.
         -2    1    1    2  502    0  0.25395811244E+02 -0.12491094070E+02 -0.35752497780E+03  0.35864339450E+03  0.25500000000E-02 0. -1.
<mgrwt>
<rscale>  0 0.80877030E+02</rscale>
<asrwt>0</asrwt>
<pdfrwt beam="2">  1        2 0.64271876E-01 0.80877030E+02</pdfrwt>
<pdfrwt beam="1">  1       -2 0.60220271E-03 0.80877030E+02</pdfrwt>
<totfact> 0.27805234E+05</totfact>
</mgrwt>
</event>
<event>
 4    1  0.4696545E-002  0.6609593E+02  0.7818608E-02  0.1373896E+00
         -2   -1    0    0  501    0 -0.00000000000E+00  0.00000000000E+00  0.29028353905E+02  0.29028354017E+02  0.25500000000E-02 0.  1.
          2   -1    0    0    0  501  0.00000000000E+00 -0.00000000000E+00 -0.37624180384E+02  0.37624180470E+02  0.25500000000E-02 0.  1.
          2    1    1    2    0  502 -0.28230789836E+02  0.15627366433E+02 -0.11497782248E+02  0.34254796446E+02  0.25500000000E-02 0.  1.
         -2    1    1    2  502    0  0.28230789836E+02 -0.15627366433E+02  0.29019557693E+01  0.32397738041E+02  0.25500000000E-02 0.  1.
<mgrwt>
<rscale>  0 0.66095931E+02</rscale>
<asrwt>0</asrwt>
<pdfrwt beam="2">  1        2 0.57883355E-02 0.66095931E+02</pdfrwt>
<pdfrwt beam="1">  1       -2 0.44659006E-02 0.66095931E+02</pdfrwt>
<totfact> 0.23206534E+05</totfact>
</mgrwt>
</event>
<event>
 4    1  0.4696545E-002  0.7035056E+02  0.7818608E-02  0.1358905E+00
          2   -1    0    0    0  501  0.00000000000E+00  0.00000000000E+00  0.52444153823E+01  0.52444160022E+01  0.25500000000E-02 0.  1.
         -2   -1    0    0  501    0 -0.00000000000E+00 -0.00000000000E+00 -0.23592719981E+03  0.23592719982E+03  0.25500000000E-02 0.  1.
          2    1    1    2    0  502 -0.75725097513E+01  0.34347624391E+02 -0.11381557916E+03  0.11912635422E+03  0.25500000000E-02 0.  1.
         -2    1    1    2  502    0  0.75725097513E+01 -0.34347624391E+02 -0.11686720527E+03  0.12204526160E+03  0.25500000000E-02 0.  1.
<mgrwt>
<rscale>  0 0.70350560E+02</rscale>
<asrwt>0</asrwt>
<pdfrwt beam="1">  1        2 0.80683337E-03 0.70350560E+02</pdfrwt>
<pdfrwt beam="2">  1       -2 0.36296484E-01 0.70350560E+02</pdfrwt>
<totfact> 0.11187058E+05</totfact>
</mgrwt>
</event>
<event>
 4    1  0.4696545E-002  0.6847089E+02  0.7818608E-02  0.1365371E+00
          2   -1    0    0    0  501  0.00000000000E+00  0.00000000000E+00  0.51452396854E+02  0.51452396917E+02  0.25500000000E-02 0.  1.
         -2   -1    0    0  501    0 -0.00000000000E+00 -0.00000000000E+00 -0.22779612880E+02  0.22779613023E+02  0.25500000000E-02 0.  1.
          2    1    1    2    0  502  0.32014251277E+02 -0.48887720703E+01  0.23003266556E+01  0.32466966080E+02  0.25500000000E-02 0. -1.
         -2    1    1    2  502    0 -0.32014251277E+02  0.48887720703E+01  0.26372457318E+02  0.41765043861E+02  0.25500000000E-02 0. -1.
<mgrwt>
<rscale>  0 0.68470890E+02</rscale>
<asrwt>0</asrwt>
<pdfrwt beam="1">  1        2 0.79157534E-02 0.68470890E+02</pdfrwt>
<pdfrwt beam="2">  1       -2 0.35045559E-02 0.68470890E+02</pdfrwt>
<totfact> 0.22523167E+05</totfact>
</mgrwt>
</event>
<event>
 4    1  0.4696545E-002  0.5267606E+02  0.7818608E-02  0.1431420E+00
         -2   -1    0    0  501    0 -0.00000000000E+00  0.00000000000E+00  0.50301289972E+01  0.50301296436E+01  0.25500000000E-02 0.  1.
          2   -1    0    0    0  501  0.00000000000E+00 -0.00000000000E+00 -0.13790733962E+03  0.13790733964E+03  0.25500000000E-02 0.  1.
          2    1    1    2    0  502 -0.25995630756E+02  0.76216374824E-01 -0.77923273912E+02  0.82145086591E+02  0.25500000000E-02 0.  1.
         -2    1    1    2  502    0  0.25995630756E+02 -0.76216374824E-01 -0.54953936707E+02  0.60792382692E+02  0.25500000000E-02 0.  1.
<mgrwt>
<rscale>  0 0.52676057E+02</rscale>
<asrwt>0</asrwt>
<pdfrwt beam="2">  1        2 0.21216511E-01 0.52676057E+02</pdfrwt>
<pdfrwt beam="1">  1       -2 0.77386616E-03 0.52676057E+02</pdfrwt>
<totfact> 0.57399543E+05</totfact>
</mgrwt>
</event>
<event>
 4    1  0.4696545E-002  0.5906649E+02  0.7818608E-02  0.1401792E+00
         -2   -1    0    0  501    0 -0.00000000000E+00  0.00000000000E+00  0.72297418818E+03  0.72297418818E+03  0.25500000000E-02 0.  1.
          2   -1    0    0    0  501  0.00000000000E+00 -0.00000000000E+00 -0.12064214496E+01  0.12064241445E+01  0.25500000000E-02 0.  1.
          2    1    1    2    0  502  0.72596653666E+01 -0.20771877684E+02  0.60239846865E+03  0.60280020627E+03  0.25500000000E-02 0. -1.
         -2    1    1    2  502    0 -0.72596653666E+01  0.20771877684E+02  0.11936929808E+03  0.12138040606E+03  0.25500000000E-02 0. -1.
<mgrwt>
<rscale>  0 0.59066490E+02</rscale>
<asrwt>0</asrwt>
<pdfrwt beam="2">  1        2 0.18560330E-03 0.59066490E+02</pdfrwt>
<pdfrwt beam="1">  1       -2 0.11122692E+00 0.59066490E+02</pdfrwt>
<totfact> 0.79693649E+04</totfact>
</mgrwt>
</event>
<event>
 4    1  0.4696545E-002  0.7178804E+02  0.7818608E-02  0.1354116E+00
          2   -1    0    0    0  501  0.00000000000E+00  0.00000000000E+00  0.23243881029E+03  0.23243881030E+03  0.25500000000E-02 0.  1.
         -2   -1    0    0  501    0 -0.00000000000E+00 -0.00000000000E+00 -0.55428801558E+01  0.55428807423E+01  0.25500000000E-02 0.  1.
          2    1    1    2    0  502  0.87144752162E+01  0.24313451564E+02  0.30817492452E+02  0.40209499533E+02  0.25500000000E-02 0.  1.
         -2    1    1    2  502    0 -0.87144752162E+01 -0.24313451564E+02  0.19607843768E+03  0.19777219151E+03  0.25500000000E-02 0.  1.
<mgrwt>
<rscale>  0 0.71788036E+02</rscale>
<asrwt>0</asrwt>
<pdfrwt beam="1">  1        2 0.35759818E-01 0.71788036E+02</pdfrwt>
<pdfrwt beam="2">  1       -2 0.85275081E-03 0.71788036E+02</pdfrwt>
<totfact> 0.30752401E+05</totfact>
</mgrwt>
</event>
<event>
 4    1  0.4696545E-002  0.9737951E+02  0.7818608E-02  0.1285905E+00
          2   -1    0    0    0  501  0.00000000000E+00  0.00000000000E+00  0.11313043800E+01  0.11313072539E+01  0.25500000000E-02 0.  1.
         -2   -1    0    0  501    0 -0.00000000000E+00 -0.00000000000E+00 -0.20955362919E+04  0.20955362919E+04  0.25500000000E-02 0.  1.
          2    1    1    2    0  502 -0.21549540912E+02  0.29524223977E+02 -0.35464713747E+03  0.35652581202E+03  0.25500000000E-02 0. -1.
         -2    1    1    2  502    0  0.21549540912E+02 -0.29524223977E+02 -0.17397578500E+04  0.17401417871E+04  0.25500000000E-02 0. -1.
<mgrwt>
<rscale>  0 0.97379513E+02</rscale>
<asrwt>0</asrwt>
<pdfrwt beam="1">  1        2 0.17404873E-03 0.97379513E+02</pdfrwt>
<pdfrwt beam="2">  1       -2 0.32238709E+00 0.97379513E+02</pdfrwt>
<totfact> 0.42642362E+03</totfact>
</mgrwt>
</event>
<event>
 4    1  0.4696545E-002  0.5932466E+02  0.7818608E-02  0.1400688E+00
         -2   -1    0    0  501    0 -0.00000000000E+00  0.00000000000E+00  0.48740271931E+00  0.48740938983E+00  0.25500000000E-02 0.  1.
          2   -1    0    0    0  501  0.00000000000E+00 -0.00000000000E+00 -0.18051762413E+04  0.18051762413E+04  0.25500000000E-02 0.  1.
          2    1    1    2    0  502  0.18719848937E+02 -0.22801934868E+02 -0.99612218183E+03  0.99655896068E+03  0.25500000000E-02 0.  1.
         -2    1    1    2  502    0 -0.18719848937E+02  0.22801934868E+02 -0.80856665676E+03  0.80910469002E+03  0.25500000000E-02 0.  1.
<mgrwt>
<rscale>  0 0.59324660E+02</rscale>
<asrwt>0</asrwt>
<pdfrwt beam="2">  1        2 0.27771407E+00 0.59324660E+02</pdfrwt>
<pdfrwt beam="1">  1       -2 0.74986992E-04 0.59324660E+02</pdfrwt>
<totfact> 0.64959147E+05</totfact>
</mgrwt>
</event>
<event>
 4    1  0.4696545E-002  0.6697839E+02  0.7818608E-02  0.1370680E+00
         -2   -1    0    0  501    0 -0.00000000000E+00  0.00000000000E+00  0.63499654169E+02  0.63499654220E+02  0.25500000000E-02 0. -1.
          2   -1    0    0    0  501  0.00000000000E+00 -0.00000000000E+00 -0.17661923820E+02  0.17661924005E+02  0.25500000000E-02 0. -1.
          2    1    1    2    0  502 -0.14445563943E+02  0.17779977878E+02  0.52519607410E+02  0.57298438897E+02  0.25500000000E-02 0. -1.
         -2    1    1    2  502    0  0.14445563943E+02 -0.17779977878E+02 -0.66818770619E+01  0.23863139328E+02  0.25500000000E-02 0. -1.
<mgrwt>
<rscale>  0 0.66978386E+02</rscale>
<asrwt>0</asrwt>
<pdfrwt beam="2">  1        2 0.27172191E-02 0.66978386E+02</pdfrwt>
<pdfrwt beam="1">  1       -2 0.97691775E-02 0.66978386E+02</pdfrwt>
<totfact> 0.19170788E+05</totfact>
</mgrwt>
</event>
<event>
 4    1  0.4696545E-002  0.1087595E+03  0.7818608E-02  0.1262884E+00
         -2   -1    0    0  501    0 -0.00000000000E+00  0.00000000000E+00  0.37602120251E+01  0.37602128897E+01  0.25500000000E-02 0.  1.
          2   -1    0    0    0  501  0.00000000000E+00 -0.00000000000E+00 -0.78643366233E+03  0.78643366233E+03  0.25500000000E-02 0.  1.
          2    1    1    2    0  502  0.12899339929E+02 -0.46060582319E+02 -0.57928585242E+03  0.58125731740E+03  0.25500000000E-02 0. -1.
         -2    1    1    2  502    0 -0.12899339929E+02  0.46060582319E+02 -0.20338759789E+03  0.20893655782E+03  0.25500000000E-02 0. -1.
<mgrwt>
<rscale>  0 0.10875951E+03</rscale>
<asrwt>0</asrwt>
<pdfrwt beam="2">  1        2 0.12098966E+00 0.10875951E+03</pdfrwt>
<pdfrwt beam="1">  1       -2 0.57849485E-03 0.10875951E+03</pdfrwt>
<totfact> 0.15204200E+05</totfact>
</mgrwt>
</event>
<event>
 4    1  0.4696545E-002  0.5337225E+02  0.7818608E-02  0.1427957E+00
         -2   -1    0    0  501    0 -0.00000000000E+00  0.00000000000E+00  0.29752026831E+01  0.29752037759E+01  0.25500000000E-02 0.  1.
          2   -1    0    0    0  501  0.00000000000E+00 -0.00000000000E+00 -0.23936157760E+03  0.23936157761E+03  0.25500000000E-02 0.  1.
          2    1    1    2    0  502 -0.17091007733E+02 -0.19797911905E+02 -0.94128755921E+02  0.97694844075E+02  0.25500000000E-02 0. -1.
         -2    1    1    2  502    0  0.17091007733E+02  0.19797911905E+02 -0.14225761900E+03  0.14464193732E+03  0.25500000000E-02 0. -1.
<mgrwt>
<rscale>  0 0.53372253E+02</rscale>
<asrwt>0</asrwt>
<pdfrwt beam="2">  1        2 0.36824843E-01 0.53372253E+02</pdfrwt>
<pdfrwt beam="1">  1       -2 0.45772376E-03 0.53372253E+02</pdfrwt>
<totfact> 0.66412989E+05</totfact>
</mgrwt>
</event>
<event>
 4    1  0.4696545E-002  0.8126577E+02  0.7818608E-02  0.1325497E+00
          2   -1    0    0    0  501  0.00000000000E+00  0.00000000000E+00  0.37147438653E+04  0.37147438653E+04  0.25500000000E-02 0. -1.
         -2   -1    0    0  501    0 -0.00000000000E+00 -0.00000000000E+00 -0.44444992061E+00  0.44445723577E+00  0.25500000000E-02 0. -1.
          2    1    1    2    0  502  0.27127078613E+02 -0.27338506924E+02  0.12650212826E+04  0.12656074106E+04  0.25500000000E-02 0.  1.
         -2    1    1    2  502    0 -0.27127078613E+02  0.27338506924E+02  0.24492781329E+04  0.24495809120E+04  0.25500000000E-02 0.  1.
<mgrwt>
<rscale>  0 0.81265767E+02</rscale>
<asrwt>0</asrwt>
<pdfrwt beam="1">  1        2 0.57150085E+00 0.81265767E+02</pdfrwt>
<pdfrwt beam="2">  1       -2 0.68377259E-04 0.81265767E+02</pdfrwt>
<totfact> 0.67354458E+04</totfact>
</mgrwt>
</event>
<event>
 4    1  0.4696545E-002  0.6643960E+02  0.7818608E-02  0.1372637E+00
          2   -1    0    0    0  501  0.00000000000E+00  0.00000000000E+00  0.36185524905E+03  0.36185524906E+03  0.25500000000E-02 0.  1.
         -2   -1    0    0  501    0 -0.00000000000E+00 -0.00000000000E+00 -0.30497135948E+01  0.30497146609E+01  0.25500000000E-02 0.  1.
          2    1    1    2    0  502 -0.22964980656E+02 -0.18680917541E+02  0.96618939110E+02  0.10105239442E+03  0.25500000000E-02 0.  1.
         -2    1    1    2  502    0  0.22964980656E+02  0.18680917541E+02  0.26218659634E+03  0.26385256930E+03  0.25500000000E-02 0.  1.
<mgrwt>
<rscale>  0 0.66439599E+02</rscale>
<asrwt>0</asrwt>
<pdfrwt beam="1">  1        2 0.55670037E-01 0.66439599E+02</pdfrwt>
<pdfrwt beam="2">  1       -2 0.46918681E-03 0.66439599E+02</pdfrwt>
<totfact> 0.44023952E+05</totfact>
</mgrwt>
</event>
<event>
 4    1  0.4696545E-002  0.5571192E+02  0.7818608E-02  0.1416762E+00
         -2   -1    0    0  501    0 -0.00000000000E+00  0.00000000000E+00  0.76432287030E+01  0.76432291283E+01  0.25500000000E-02 0.  1.
          2   -1    0    0    0  501  0.00000000000E+00 -0.00000000000E+00 -0.10152183090E+03  0.10152183093E+03  0.25500000000E-02 0.  1.
          2    1    1    2    0  502  0.24926405039E+02 -0.56901359598E+01 -0.25274125880E+02  0.35951144084E+02  0.25500000000E-02 0. -1.
         -2    1    1    2  502    0 -0.24926405039E+02  0.56901359598E+01 -0.68604476318E+02  0.73213915977E+02  0.25500000000E-02 0. -1.
<mgrwt>
<rscale>  0 0.55711923E+02</rscale>
<asrwt>0</asrwt>
<pdfrwt beam="2">  1        2 0.15618742E-01 0.55711923E+02</pdfrwt>
<pdfrwt beam="1">  1       -2 0.11758814E-02 0.55711923E+02</pdfrwt>
<totfact> 0.45616656E+05</totfact>
</mgrwt>
</event>
<event>
 4    1  0.4696545E-002  0.1059509E+03  0.7818608E-02  0.1268257E+00
         -2   -1    0    0  501    0 -0.00000000000E+00  0.00000000000E+00  0.59839350782E+01  0.59839356215E+01  0.25500000000E-02 0. -1.
          2   -1    0    0    0  501  0.00000000000E+00 -0.00000000000E+00 -0.46898841528E+03  0.46898841529E+03  0.25500000000E-02 0. -1.
          2    1    1    2    0  502  0.36208741740E+02  0.38632900749E+02 -0.22397094531E+03  0.23014464657E+03  0.25500000000E-02 0. -1.
         -2    1    1    2  502    0 -0.36208741740E+02 -0.38632900749E+02 -0.23903353490E+03  0.24482770434E+03  0.25500000000E-02 0. -1.
<mgrwt>
<rscale>  0 0.10595086E+03</rscale>
<asrwt>0</asrwt>
<pdfrwt beam="2">  1        2 0.72152035E-01 0.10595086E+03</pdfrwt>
<pdfrwt beam="1">  1       -2 0.92060581E-03 0.10595086E+03</pdfrwt>
<totfact> 0.14128396E+05</totfact>
</mgrwt>
</event>
<event>
 4    1  0.4696545E-002  0.6410146E+02  0.7818608E-02  0.1381384E+00
          2   -1    0    0    0  501  0.00000000000E+00  0.00000000000E+00  0.67891852169E+02  0.67891852217E+02  0.25500000000E-02 0. -1.
         -2   -1    0    0  501    0 -0.00000000000E+00 -0.00000000000E+00 -0.15130673374E+02  0.15130673589E+02  0.25500000000E-02 0. -1.
          2    1    1    2    0  502  0.85795722530E+01  0.25033718633E+02  0.49799724947E+02  0.56394226122E+02  0.25500000000E-02 0. -1.
         -2    1    1    2  502    0 -0.85795722530E+01 -0.25033718633E+02  0.29614538485E+01  0.26628299684E+02  0.25500000000E-02 0. -1.
<mgrwt>
<rscale>  0 0.64101465E+02</rscale>
<asrwt>0</asrwt>
<pdfrwt beam="1">  1        2 0.10444900E-01 0.64101465E+02</pdfrwt>
<pdfrwt beam="2">  1       -2 0.23277959E-02 0.64101465E+02</pdfrwt>
<totfact> 0.28616908E+05</totfact>
</mgrwt>
</event>
<event>
 4    1  0.4696545E-002  0.7651954E+02  0.7818608E-02  0.1339229E+00
         -2   -1    0    0  501    0 -0.00000000000E+00  0.00000000000E+00  0.11979018680E+01  0.11979045821E+01  0.25500000000E-02 0. -1.
          2   -1    0    0    0  501  0.00000000000E+00 -0.00000000000E+00 -0.12219768105E+04  0.12219768105E+04  0.25500000000E-02 0. -1.
          2    1    1    2    0  502  0.24341726330E+02  0.10315510726E+02 -0.10524817639E+04  0.10528137503E+04  0.25500000000E-02 0. -1.
         -2    1    1    2  502    0 -0.24341726330E+02 -0.10315510726E+02 -0.16829714472E+03  0.17036096481E+03  0.25500000000E-02 0. -1.
<mgrwt>
<rscale>  0 0.76519539E+02</rscale>
<asrwt>0</asrwt>
<pdfrwt beam="2">  1        2 0.18799544E+00 0.76519539E+02</pdfrwt>
<pdfrwt beam="1">  1       -2 0.18429378E-03 0.76519539E+02</pdfrwt>
<totfact> 0.39205758E+05</totfact>
</mgrwt>
</event>
<event>
 4    1  0.4696545E-002  0.5591389E+02  0.7818608E-02  0.1415826E+00
          2   -1    0    0    0  501  0.00000000000E+00  0.00000000000E+00  0.97907995374E+03  0.97907995374E+03  0.25500000000E-02 0. -1.
         -2   -1    0    0  501    0 -0.00000000000E+00 -0.00000000000E+00 -0.79828896398E+00  0.79829303674E+00  0.25500000000E-02 0. -1.
          2    1    1    2    0  502  0.69673940402E+01 -0.22297333563E+02  0.21999142655E+03  0.22122826091E+03  0.25500000000E-02 0. -1.
         -2    1    1    2  502    0 -0.69673940402E+01  0.22297333563E+02  0.75829023822E+03  0.75864998587E+03  0.25500000000E-02 0. -1.
<mgrwt>
<rscale>  0 0.55913888E+02</rscale>
<asrwt>0</asrwt>
<pdfrwt beam="1">  1        2 0.15062785E+00 0.55913888E+02</pdfrwt>
<pdfrwt beam="2">  1       -2 0.12281387E-03 0.55913888E+02</pdfrwt>
<totfact> 0.87624182E+05</totfact>
</mgrwt>
</event>
<event>
 4    1  0.4696545E-002  0.1756712E+03  0.7818608E-02  0.1172059E+00
         -2   -1    0    0  501    0 -0.00000000000E+00  0.00000000000E+00  0.12983727616E+02  0.12983727866E+02  0.25500000000E-02 0.  1.
          2   -1    0    0    0  501  0.00000000000E+00 -0.00000000000E+00 -0.59421251259E+03  0.59421251259E+03  0.25500000000E-02 0.  1.
          2    1    1    2    0  502  0.30616141882E+01  0.48827196312E+02 -0.54275953819E+03  0.54495998466E+03  0.25500000000E-02 0.  1.
         -2    1    1    2  502    0 -0.30616141882E+01 -0.48827196312E+02 -0.38469246782E+02  0.62236255797E+02  0.25500000000E-02 0.  1.
<mgrwt>
<rscale>  0 0.17567121E+03</rscale>
<asrwt>0</asrwt>
<pdfrwt beam="2">  1        2 0.91417288E-01 0.17567121E+03</pdfrwt>
<pdfrwt beam="1">  1       -2 0.19974970E-02 0.17567121E+03</pdfrwt>
<totfact> 0.37843375E+04</totfact>
</mgrwt>
</event>
<event>
 4    1  0.4696545E-002  0.1681362E+03  0.7818608E-02  0.1179806E+00
          2   -1    0    0    0  501  0.00000000000E+00  0.00000000000E+00  0.53791035970E+02  0.53791036030E+02  0.25500000000E-02 0.  1.
         -2   -1    0    0  501    0 -0.00000000000E+00 -0.00000000000E+00 -0.13138698522E+03  0.13138698525E+03  0.25500000000E-02 0.  1.
          2    1    1    2    0  502  0.13542622198E+02  0.77822438791E+02 -0.70483925782E+02  0.10586651215E+03  0.25500000000E-02 0.  1.
         -2    1    1    2  502    0 -0.13542622198E+02 -0.77822438791E+02 -0.71120234722E+01  0.79311509126E+02  0.25500000000E-02 0.  1.
<mgrwt>
<rscale>  0 0.16813616E+03</rscale>
<asrwt>0</asrwt>
<pdfrwt beam="1">  1        2 0.82755440E-02 0.16813616E+03</pdfrwt>
<pdfrwt beam="2">  1       -2 0.20213382E-01 0.16813616E+03</pdfrwt>
<totfact> 0.15937502E+04</totfact>
</mgrwt>
</event>
<event>
 4    1  0.4696545E-002  0.6048281E+02  0.7818608E-02  0.1395817E+00
          2   -1    0    0    0  501  0.00000000000E+00  0.00000000000E+00  0.23024079880E+03  0.23024079882E+03  0.25500000000E-02 0.  1.
         -2   -1    0    0  501    0 -0.00000000000E+00 -0.00000000000E+00 -0.39721128704E+01  0.39721136889E+01  0.25500000000E-02 0.  1.
          2    1    1    2    0  502 -0.25628610016E+02 -0.73831670417E+01  0.57933354729E+02  0.63777820624E+02  0.25500000000E-02 0.  1.
         -2    1    1    2  502    0  0.25628610016E+02  0.73831670417E+01  0.16833533120E+03  0.17043509188E+03  0.25500000000E-02 0.  1.
<mgrwt>
<rscale>  0 0.60482809E+02</rscale>
<asrwt>0</asrwt>
<pdfrwt beam="1">  1        2 0.35421668E-01 0.60482809E+02</pdfrwt>
<pdfrwt beam="2">  1       -2 0.61109424E-03 0.60482809E+02</pdfrwt>
<totfact> 0.47710867E+05</totfact>
</mgrwt>
</event>
<event>
 4    1  0.4696545E-002  0.6469700E+02  0.7818608E-02  0.1379115E+00
          2   -1    0    0    0  501  0.00000000000E+00  0.00000000000E+00  0.13892599378E+04  0.13892599379E+04  0.25500000000E-02 0.  1.
         -2   -1    0    0  501    0 -0.00000000000E+00 -0.00000000000E+00 -0.75322301951E+00  0.75322733595E+00  0.25500000000E-02 0.  1.
          2    1    1    2    0  502  0.30110436673E+02 -0.84649426513E+01  0.87159471457E+03  0.87215574304E+03  0.25500000000E-02 0. -1.
         -2    1    1    2  502    0 -0.30110436673E+02  0.84649426513E+01  0.51691200026E+03  0.51785742214E+03  0.25500000000E-02 0. -1.
<mgrwt>
<rscale>  0 0.64697004E+02</rscale>
<asrwt>0</asrwt>
<pdfrwt beam="1">  1        2 0.21373154E+00 0.64697004E+02</pdfrwt>
<pdfrwt beam="2">  1       -2 0.11588121E-03 0.64697004E+02</pdfrwt>
<totfact> 0.58802839E+05</totfact>
</mgrwt>
</event>
<event>
 4    1  0.4696545E-002  0.4382878E+02  0.7818608E-02  0.1481789E+00
          2   -1    0    0    0  501  0.00000000000E+00  0.00000000000E+00  0.13511995675E+02  0.13511995915E+02  0.25500000000E-02 0.  1.
         -2   -1    0    0  501    0 -0.00000000000E+00 -0.00000000000E+00 -0.35541792748E+02  0.35541792839E+02  0.25500000000E-02 0.  1.
          2    1    1    2    0  502 -0.48055143139E+01 -0.20168248402E+02 -0.18959689572E+02  0.28094858009E+02  0.25500000000E-02 0.  1.
         -2    1    1    2  502    0  0.48055143139E+01  0.20168248402E+02 -0.30701075009E+01  0.20958930745E+02  0.25500000000E-02 0.  1.
<mgrwt>
<rscale>  0 0.43828783E+02</rscale>
<asrwt>0</asrwt>
<pdfrwt beam="1">  1        2 0.20787686E-02 0.43828783E+02</pdfrwt>
<pdfrwt beam="2">  1       -2 0.54679681E-02 0.43828783E+02</pdfrwt>
<totfact> 0.58912360E+05</totfact>
</mgrwt>
</event>
<event>
 4    1  0.4696545E-002  0.9300115E+02  0.7818608E-02  0.1295743E+00
          2   -1    0    0    0  501  0.00000000000E+00  0.00000000000E+00  0.18127824157E+04  0.18127824157E+04  0.25500000000E-02 0. -1.
         -2   -1    0    0  501    0 -0.00000000000E+00 -0.00000000000E+00 -0.11928077411E+01  0.11928104669E+01  0.25500000000E-02 0. -1.
          2    1    1    2    0  502  0.39567342219E+02 -0.11317078443E+02  0.13280437036E+04  0.13286811994E+04  0.25500000000E-02 0. -1.
         -2    1    1    2  502    0 -0.39567342219E+02  0.11317078443E+02  0.48354590437E+03  0.48529402683E+03  0.25500000000E-02 0. -1.
<mgrwt>
<rscale>  0 0.93001148E+02</rscale>
<asrwt>0</asrwt>
<pdfrwt beam="1">  1        2 0.27888797E+00 0.93001148E+02</pdfrwt>
<pdfrwt beam="2">  1       -2 0.18351017E-03 0.93001148E+02</pdfrwt>
<totfact> 0.20239925E+05</totfact>
</mgrwt>
</event>
<event>
 4    1  0.4696545E-002  0.2042821E+03  0.7818608E-02  0.1146176E+00
         -2   -1    0    0  501    0 -0.00000000000E+00  0.00000000000E+00  0.33415888188E+02  0.33415888286E+02  0.25500000000E-02 0. -1.
          2   -1    0    0    0  501  0.00000000000E+00 -0.00000000000E+00 -0.31221054219E+03  0.31221054220E+03  0.25500000000E-02 0. -1.
          2    1    1    2    0  502 -0.21524450050E+02  0.33356977148E+02  0.19829099732E+02  0.44375478331E+02  0.25500000000E-02 0.  1.
         -2    1    1    2  502    0  0.21524450050E+02 -0.33356977148E+02 -0.29862375373E+03  0.30125095215E+03  0.25500000000E-02 0.  1.
<mgrwt>
<rscale>  0 0.20428209E+03</rscale>
<asrwt>0</asrwt>
<pdfrwt beam="2">  1        2 0.48032389E-01 0.20428209E+03</pdfrwt>
<pdfrwt beam="1">  1       -2 0.51409061E-02 0.20428209E+03</pdfrwt>
<totfact> 0.19038418E+04</totfact>
</mgrwt>
</event>
<event>
 4    1  0.4696545E-002  0.4841113E+02  0.7818608E-02  0.1454105E+00
          2   -1    0    0    0  501  0.00000000000E+00  0.00000000000E+00  0.54516043300E+03  0.54516043300E+03  0.25500000000E-02 0.  1.
         -2   -1    0    0  501    0 -0.00000000000E+00 -0.00000000000E+00 -0.10747449681E+01  0.10747479932E+01  0.25500000000E-02 0.  1.
          2    1    1    2    0  502  0.15112416304E+02  0.17247816084E+02  0.35946949947E+03  0.36020021286E+03  0.25500000000E-02 0. -1.
         -2    1    1    2  502    0 -0.15112416304E+02 -0.17247816084E+02  0.18461618856E+03  0.18603496814E+03  0.25500000000E-02 0. -1.
<mgrwt>
<rscale>  0 0.48411125E+02</rscale>
<asrwt>0</asrwt>
<pdfrwt beam="1">  1        2 0.83870953E-01 0.48411125E+02</pdfrwt>
<pdfrwt beam="2">  1       -2 0.16534538E-03 0.48411125E+02</pdfrwt>
<totfact> 0.11163850E+06</totfact>
</mgrwt>
</event>
<event>
 4    1  0.4696545E-002  0.5487537E+02  0.7818608E-02  0.1420689E+00
          2   -1    0    0    0  501  0.00000000000E+00  0.00000000000E+00  0.21108218905E+02  0.21108219059E+02  0.25500000000E-02 0. -1.
         -2   -1    0    0  501    0 -0.00000000000E+00 -0.00000000000E+00 -0.35665094196E+02  0.35665094288E+02  0.25500000000E-02 0. -1.
          2    1    1    2    0  502  0.11065983285E+02  0.23245225030E+02  0.25381541353E+01  0.25869648348E+02  0.25500000000E-02 0. -1.
         -2    1    1    2  502    0 -0.11065983285E+02 -0.23245225030E+02 -0.17095029426E+02  0.30903664999E+02  0.25500000000E-02 0. -1.
<mgrwt>
<rscale>  0 0.54875372E+02</rscale>
<asrwt>0</asrwt>
<pdfrwt beam="1">  1        2 0.32474183E-02 0.54875372E+02</pdfrwt>
<pdfrwt beam="2">  1       -2 0.54869376E-02 0.54875372E+02</pdfrwt>
<totfact> 0.34589694E+05</totfact>
</mgrwt>
</event>
<event>
 4    1  0.4696545E-002  0.4617505E+02  0.7818608E-02  0.1467137E+00
          2   -1    0    0    0  501  0.00000000000E+00  0.00000000000E+00  0.50647672943E+01  0.50647679362E+01  0.25500000000E-02 0.  1.
         -2   -1    0    0  501    0 -0.00000000000E+00 -0.00000000000E+00 -0.10524346994E+03  0.10524346997E+03  0.25500000000E-02 0.  1.
          2    1    1    2    0  502  0.51519503394E+01 -0.20476068797E+02 -0.72400038953E+02  0.75416030342E+02  0.25500000000E-02 0.  1.
         -2    1    1    2  502    0 -0.51519503394E+01  0.20476068797E+02 -0.27778663691E+02  0.34892207563E+02  0.25500000000E-02 0.  1.
<mgrwt>
<rscale>  0 0.46175046E+02</rscale>
<asrwt>0</asrwt>
<pdfrwt beam="1">  1        2 0.77919510E-03 0.46175046E+02</pdfrwt>
<pdfrwt beam="2">  1       -2 0.16191301E-01 0.46175046E+02</pdfrwt>
<totfact> 0.42282255E+05</totfact>
</mgrwt>
</event>
<event>
 4    1  0.4696545E-002  0.5413273E+02  0.7818608E-02  0.1424245E+00
         -2   -1    0    0  501    0 -0.00000000000E+00  0.00000000000E+00  0.98104441218E+00  0.98104772625E+00  0.25500000000E-02 0. -1.
          2   -1    0    0    0  501  0.00000000000E+00 -0.00000000000E+00 -0.74674167639E+03  0.74674167640E+03  0.25500000000E-02 0. -1.
          2    1    1    2    0  502 -0.12610812334E+02  0.20746958968E+02 -0.53812575005E+03  0.53867317713E+03  0.25500000000E-02 0. -1.
         -2    1    1    2  502    0  0.12610812334E+02 -0.20746958968E+02 -0.20763488193E+03  0.20904954699E+03  0.25500000000E-02 0. -1.
<mgrwt>
<rscale>  0 0.54132725E+02</rscale>
<asrwt>0</asrwt>
<pdfrwt beam="2">  1        2 0.11488288E+00 0.54132725E+02</pdfrwt>
<pdfrwt beam="1">  1       -2 0.15093076E-03 0.54132725E+02</pdfrwt>
<totfact> 0.91612307E+05</totfact>
</mgrwt>
</event>
<event>
 4    1  0.4696545E-002  0.6022496E+02  0.7818608E-02  0.1396890E+00
          2   -1    0    0    0  501  0.00000000000E+00  0.00000000000E+00  0.16242189989E+03  0.16242189991E+03  0.25500000000E-02 0.  1.
         -2   -1    0    0  501    0 -0.00000000000E+00 -0.00000000000E+00 -0.55827531716E+01  0.55827537540E+01  0.25500000000E-02 0.  1.
          2    1    1    2    0  502 -0.18323546642E+00  0.27204218229E+02  0.11443249402E+03  0.11762184644E+03  0.25500000000E-02 0.  1.
         -2    1    1    2  502    0  0.18323546642E+00 -0.27204218229E+02  0.42406652700E+02  0.50382807231E+02  0.25500000000E-02 0.  1.
<mgrwt>
<rscale>  0 0.60224959E+02</rscale>
<asrwt>0</asrwt>
<pdfrwt beam="1">  1        2 0.24987980E-01 0.60224959E+02</pdfrwt>
<pdfrwt beam="2">  1       -2 0.85888530E-03 0.60224959E+02</pdfrwt>
<totfact> 0.42899211E+05</totfact>
</mgrwt>
</event>
<event>
 4    1  0.4696545E-002  0.4453299E+02  0.7818608E-02  0.1477278E+00
          2   -1    0    0    0  501  0.00000000000E+00  0.00000000000E+00  0.32037957005E+02  0.32037957107E+02  0.25500000000E-02 0. -1.
         -2   -1    0    0  501    0 -0.00000000000E+00 -0.00000000000E+00 -0.15475293862E+02  0.15475294072E+02  0.25500000000E-02 0. -1.
          2    1    1    2    0  502  0.21876371289E+02 -0.37375397417E+01  0.10205338216E+02  0.24427315831E+02  0.25500000000E-02 0.  1.
         -2    1    1    2  502    0 -0.21876371289E+02  0.37375397417E+01  0.63573249276E+01  0.23085935347E+02  0.25500000000E-02 0.  1.
<mgrwt>
<rscale>  0 0.44532990E+02</rscale>
<asrwt>0</asrwt>
<pdfrwt beam="1">  1        2 0.49289164E-02 0.44532990E+02</pdfrwt>
<pdfrwt beam="2">  1       -2 0.23808145E-02 0.44532990E+02</pdfrwt>
<totfact> 0.64009181E+05</totfact>
</mgrwt>
</event>
<event>
 4    1  0.4696545E-002  0.1401865E+03  0.7818608E-02  0.1213078E+00
          2   -1    0    0    0  501  0.00000000000E+00  0.00000000000E+00  0.58217209760E+02  0.58217209815E+02  0.25500000000E-02 0. -1.
         -2   -1    0    0  501    0 -0.00000000000E+00 -0.00000000000E+00 -0.84391952479E+02  0.84391952517E+02  0.25500000000E-02 0. -1.
          2    1    1    2    0  502 -0.38831101047E+01 -0.68748365937E+02  0.24047986529E+00  0.68858363328E+02  0.25500000000E-02 0. -1.
         -2    1    1    2  502    0  0.38831101047E+01  0.68748365937E+02 -0.26415222585E+02  0.73750799005E+02  0.25500000000E-02 0. -1.
<mgrwt>
<rscale>  0 0.14018650E+03</rscale>
<asrwt>0</asrwt>
<pdfrwt beam="1">  1        2 0.89564939E-02 0.14018650E+03</pdfrwt>
<pdfrwt beam="2">  1       -2 0.12983377E-01 0.14018650E+03</pdfrwt>
<totfact> 0.29480558E+04</totfact>
</mgrwt>
</event>
<event>
 4    1  0.4696545E-002  0.4150689E+02  0.7818608E-02  0.1497406E+00
          2   -1    0    0    0  501  0.00000000000E+00  0.00000000000E+00  0.51316997914E+01  0.51317004250E+01  0.25500000000E-02 0.  1.
         -2   -1    0    0  501    0 -0.00000000000E+00 -0.00000000000E+00 -0.83930354144E+02  0.83930354182E+02  0.25500000000E-02 0.  1.
          2    1    1    2    0  502 -0.12846117963E+02  0.15432341058E+02 -0.50656782031E+02  0.54491187081E+02  0.25500000000E-02 0.  1.
         -2    1    1    2  502    0  0.12846117963E+02 -0.15432341058E+02 -0.28141872321E+02  0.34570867526E+02  0.25500000000E-02 0.  1.
<mgrwt>
<rscale>  0 0.41506887E+02</rscale>
<asrwt>0</asrwt>
<pdfrwt beam="1">  1        2 0.78949239E-03 0.41506887E+02</pdfrwt>
<pdfrwt beam="2">  1       -2 0.12912361E-01 0.41506887E+02</pdfrwt>
<totfact> 0.57707976E+05</totfact>
</mgrwt>
</event>
<event>
 4    1  0.4696545E-002  0.9971709E+02  0.7818608E-02  0.1280892E+00
         -2   -1    0    0  501    0 -0.00000000000E+00  0.00000000000E+00  0.20367610862E+01  0.20367626825E+01  0.25500000000E-02 0.  1.
          2   -1    0    0    0  501  0.00000000000E+00 -0.00000000000E+00 -0.12205032008E+04  0.12205032008E+04  0.25500000000E-02 0.  1.
          2    1    1    2    0  502 -0.39762607980E+02  0.12655237612E+02 -0.27467566059E+03  0.27782717390E+03  0.25500000000E-02 0.  1.
         -2    1    1    2  502    0  0.39762607980E+02 -0.12655237612E+02 -0.94379077915E+03  0.94471278961E+03  0.25500000000E-02 0.  1.
<mgrwt>
<rscale>  0 0.99717088E+02</rscale>
<asrwt>0</asrwt>
<pdfrwt beam="2">  1        2 0.18776914E+00 0.99717088E+02</pdfrwt>
<pdfrwt beam="1">  1       -2 0.31334896E-03 0.99717088E+02</pdfrwt>
<totfact> 0.19586510E+05</totfact>
</mgrwt>
</event>
<event>
 4    1  0.4696545E-002  0.4700978E+02  0.7818608E-02  0.1462171E+00
         -2   -1    0    0  501    0 -0.00000000000E+00  0.00000000000E+00  0.11039513024E+02  0.11039513318E+02  0.25500000000E-02 0.  1.
          2   -1    0    0    0  501  0.00000000000E+00 -0.00000000000E+00 -0.50045679927E+02  0.50045679992E+02  0.25500000000E-02 0.  1.
          2    1    1    2    0  502  0.16256681598E+02 -0.15050791007E+02 -0.29707743015E+02  0.37058818223E+02  0.25500000000E-02 0. -1.
         -2    1    1    2  502    0 -0.16256681598E+02  0.15050791007E+02 -0.92984238879E+01  0.24026375087E+02  0.25500000000E-02 0. -1.
<mgrwt>
<rscale>  0 0.47009784E+02</rscale>
<asrwt>0</asrwt>
<pdfrwt beam="2">  1        2 0.76993353E-02 0.47009784E+02</pdfrwt>
<pdfrwt beam="1">  1       -2 0.16983867E-02 0.47009784E+02</pdfrwt>
<totfact> 0.60083730E+05</totfact>
</mgrwt>
</event>
<event>
 4    1  0.4696545E-002  0.4913771E+02  0.7818608E-02  0.1450049E+00
          2   -1    0    0    0  501  0.00000000000E+00  0.00000000000E+00  0.20104505457E+02  0.20104505619E+02  0.25500000000E-02 0. -1.
         -2   -1    0    0  501    0 -0.00000000000E+00 -0.00000000000E+00 -0.30024543337E+02  0.30024543446E+02  0.25500000000E-02 0. -1.
          2    1    1    2    0  502 -0.20753276250E+02 -0.27479572351E+01 -0.18079436396E+02  0.27660726147E+02  0.25500000000E-02 0.  1.
         -2    1    1    2  502    0  0.20753276250E+02  0.27479572351E+01  0.81593985160E+01  0.22468322918E+02  0.25500000000E-02 0.  1.
<mgrwt>
<rscale>  0 0.49137709E+02</rscale>
<asrwt>0</asrwt>
<pdfrwt beam="1">  1        2 0.30930008E-02 0.49137709E+02</pdfrwt>
<pdfrwt beam="2">  1       -2 0.46191606E-02 0.49137709E+02</pdfrwt>
<totfact> 0.46157514E+05</totfact>
</mgrwt>
</event>
<event>
 4    1  0.4696545E-002  0.5666599E+02  0.7818608E-02  0.1412381E+00
          2   -1    0    0    0  501  0.00000000000E+00  0.00000000000E+00  0.93995765895E+02  0.93995765930E+02  0.25500000000E-02 0. -1.
         -2   -1    0    0  501    0 -0.00000000000E+00 -0.00000000000E+00 -0.85403705568E+01  0.85403709375E+01  0.25500000000E-02 0. -1.
          2    1    1    2    0  502  0.25605563355E+02 -0.11642676151E+02  0.48880445555E+02  0.56395875264E+02  0.25500000000E-02 0. -1.
         -2    1    1    2  502    0 -0.25605563355E+02  0.11642676151E+02  0.36574949784E+02  0.46140261603E+02  0.25500000000E-02 0. -1.
<mgrwt>
<rscale>  0 0.56665993E+02</rscale>
<asrwt>0</asrwt>
<pdfrwt beam="1">  1        2 0.14460887E-01 0.56665993E+02</pdfrwt>
<pdfrwt beam="2">  1       -2 0.13139032E-02 0.56665993E+02</pdfrwt>
<totfact> 0.42788182E+05</totfact>
</mgrwt>
</event>
<event>
 4    1  0.4696545E-002  0.5967133E+02  0.7818608E-02  0.1399216E+00
         -2   -1    0    0  501    0 -0.00000000000E+00  0.00000000000E+00  0.93579283232E+00  0.93579630664E+00  0.25500000000E-02 0.  1.
          2   -1    0    0    0  501  0.00000000000E+00 -0.00000000000E+00 -0.95124190208E+03  0.95124190208E+03  0.25500000000E-02 0.  1.
          2    1    1    2    0  502 -0.94056322406E+01  0.23674091414E+02 -0.22731068386E+03  0.22873363444E+03  0.25500000000E-02 0. -1.
         -2    1    1    2  502    0  0.94056322406E+01 -0.23674091414E+02 -0.72299542538E+03  0.72344406394E+03  0.25500000000E-02 0. -1.
<mgrwt>
<rscale>  0 0.59671333E+02</rscale>
<asrwt>0</asrwt>
<pdfrwt beam="2">  1        2 0.14634413E+00 0.59671333E+02</pdfrwt>
<pdfrwt beam="1">  1       -2 0.14396916E-03 0.59671333E+02</pdfrwt>
<totfact> 0.74293684E+05</totfact>
</mgrwt>
</event>
<event>
 4    1  0.4696545E-002  0.1613286E+03  0.7818608E-02  0.1187205E+00
         -2   -1    0    0  501    0 -0.00000000000E+00  0.00000000000E+00  0.25210644142E+02  0.25210644271E+02  0.25500000000E-02 0.  1.
          2   -1    0    0    0  501  0.00000000000E+00 -0.00000000000E+00 -0.25809438817E+03  0.25809438818E+03  0.25500000000E-02 0.  1.
          2    1    1    2    0  502 -0.47375133480E+02  0.38278659091E+02 -0.20931593777E+03  0.21799729545E+03  0.25500000000E-02 0.  1.
         -2    1    1    2  502    0  0.47375133480E+02 -0.38278659091E+02 -0.23567806261E+02  0.65307737003E+02  0.25500000000E-02 0.  1.
<mgrwt>
<rscale>  0 0.16132856E+03</rscale>
<asrwt>0</asrwt>
<pdfrwt beam="2">  1        2 0.39706827E-01 0.16132856E+03</pdfrwt>
<pdfrwt beam="1">  1       -2 0.38785608E-02 0.16132856E+03</pdfrwt>
<totfact> 0.34908639E+04</totfact>
</mgrwt>
</event>
<event>
 4    1  0.4696545E-002  0.7268095E+02  0.7818608E-02  0.1351207E+00
          2   -1    0    0    0  501  0.00000000000E+00  0.00000000000E+00  0.10337902025E+04  0.10337902025E+04  0.25500000000E-02 0. -1.
         -2   -1    0    0  501    0 -0.00000000000E+00 -0.00000000000E+00 -0.12774631061E+01  0.12774656511E+01  0.25500000000E-02 0. -1.
          2    1    1    2    0  502  0.38650741016E+01  0.30979147565E+02  0.25135999968E+03  0.25329132600E+03  0.25500000000E-02 0.  1.
         -2    1    1    2  502    0 -0.38650741016E+01 -0.30979147565E+02  0.78115273974E+03  0.78177634218E+03  0.25500000000E-02 0.  1.
<mgrwt>
<rscale>  0 0.72680951E+02</rscale>
<asrwt>0</asrwt>
<pdfrwt beam="1">  1        2 0.15904461E+00 0.72680951E+02</pdfrwt>
<pdfrwt beam="2">  1       -2 0.19653303E-03 0.72680951E+02</pdfrwt>
<totfact> 0.45153478E+05</totfact>
</mgrwt>
</event>
<event>
 4    1  0.4696545E-002  0.4943542E+02  0.7818608E-02  0.1448411E+00
          2   -1    0    0    0  501  0.00000000000E+00  0.00000000000E+00  0.26748077842E+01  0.26748089997E+01  0.25500000000E-02 0. -1.
         -2   -1    0    0  501    0 -0.00000000000E+00 -0.00000000000E+00 -0.22841453459E+03  0.22841453460E+03  0.25500000000E-02 0. -1.
          2    1    1    2    0  502 -0.23084689449E+02 -0.72815334027E+01 -0.13626210513E+03  0.13839539341E+03  0.25500000000E-02 0. -1.
         -2    1    1    2  502    0  0.23084689449E+02  0.72815334027E+01 -0.89477621679E+02  0.92693950199E+02  0.25500000000E-02 0. -1.
<mgrwt>
<rscale>  0 0.49435417E+02</rscale>
<asrwt>0</asrwt>
<pdfrwt beam="1">  1        2 0.41150916E-03 0.49435417E+02</pdfrwt>
<pdfrwt beam="2">  1       -2 0.35140682E-01 0.49435417E+02</pdfrwt>
<totfact> 0.27374093E+05</totfact>
</mgrwt>
</event>
<event>
 4    1  0.4696545E-002  0.4836243E+02  0.7818608E-02  0.1454380E+00
          2   -1    0    0    0  501  0.00000000000E+00  0.00000000000E+00  0.15477117301E+02  0.15477117511E+02  0.25500000000E-02 0.  1.
         -2   -1    0    0  501    0 -0.00000000000E+00 -0.00000000000E+00 -0.37780369475E+02  0.37780369561E+02  0.25500000000E-02 0.  1.
          2    1    1    2    0  502  0.17280756663E+02 -0.10220747133E+02 -0.25993264750E+02  0.32844147754E+02  0.25500000000E-02 0. -1.
         -2    1    1    2  502    0 -0.17280756663E+02  0.10220747133E+02  0.36900125757E+01  0.20413339318E+02  0.25500000000E-02 0. -1.
<mgrwt>
<rscale>  0 0.48362432E+02</rscale>
<asrwt>0</asrwt>
<pdfrwt beam="1">  1        2 0.23810950E-02 0.48362432E+02</pdfrwt>
<pdfrwt beam="2">  1       -2 0.58123645E-02 0.48362432E+02</pdfrwt>
<totfact> 0.46237667E+05</totfact>
</mgrwt>
</event>
<event>
 4    1  0.4696545E-002  0.5104471E+02  0.7818608E-02  0.1439787E+00
          2   -1    0    0    0  501  0.00000000000E+00  0.00000000000E+00  0.14841522905E+04  0.14841522905E+04  0.25500000000E-02 0. -1.
         -2   -1    0    0  501    0 -0.00000000000E+00 -0.00000000000E+00 -0.43889367912E+00  0.43890108689E+00  0.25500000000E-02 0. -1.
          2    1    1    2    0  502 -0.13106917866E+02  0.20805451561E+02  0.94067913585E+03  0.94100047542E+03  0.25500000000E-02 0. -1.
         -2    1    1    2  502    0  0.13106917866E+02 -0.20805451561E+02  0.54303426098E+03  0.54359071618E+03  0.25500000000E-02 0. -1.
<mgrwt>
<rscale>  0 0.51044708E+02</rscale>
<asrwt>0</asrwt>
<pdfrwt beam="1">  1        2 0.22832703E+00 0.51044708E+02</pdfrwt>
<pdfrwt beam="2">  1       -2 0.67523884E-04 0.51044708E+02</pdfrwt>
<totfact> 0.10450805E+06</totfact>
</mgrwt>
</event>
<event>
 4    1  0.4696545E-002  0.4813700E+02  0.7818608E-02  0.1455657E+00
          2   -1    0    0    0  501  0.00000000000E+00  0.00000000000E+00  0.34038292904E+01  0.34038302456E+01  0.25500000000E-02 0.  1.
         -2   -1    0    0  501    0 -0.00000000000E+00 -0.00000000000E+00 -0.17018847261E+03  0.17018847263E+03  0.25500000000E-02 0.  1.
          2    1    1    2    0  502  0.13114392040E+02  0.17942920383E+02 -0.11670970132E+03  0.11880694449E+03  0.25500000000E-02 0.  1.
         -2    1    1    2  502    0 -0.13114392040E+02 -0.17942920383E+02 -0.50074941995E+02  0.54785358380E+02  0.25500000000E-02 0.  1.
<mgrwt>
<rscale>  0 0.48136996E+02</rscale>
<asrwt>0</asrwt>
<pdfrwt beam="1">  1        2 0.52366625E-03 0.48136996E+02</pdfrwt>
<pdfrwt beam="2">  1       -2 0.26182836E-01 0.48136996E+02</pdfrwt>
<totfact> 0.32944604E+05</totfact>
</mgrwt>
</event>
<event>
 4    1  0.4696545E-002  0.5304530E+02  0.7818608E-02  0.1429576E+00
          2   -1    0    0    0  501  0.00000000000E+00  0.00000000000E+00  0.30090990755E+03  0.30090990756E+03  0.25500000000E-02 0.  1.
         -2   -1    0    0  501    0 -0.00000000000E+00 -0.00000000000E+00 -0.23377450582E+01  0.23377464490E+01  0.25500000000E-02 0.  1.
          2    1    1    2    0  502  0.24001561960E+02 -0.10092827125E+02  0.17816041183E+03  0.18005297133E+03  0.25500000000E-02 0. -1.
         -2    1    1    2  502    0 -0.24001561960E+02  0.10092827125E+02  0.12041175066E+03  0.12319468268E+03  0.25500000000E-02 0. -1.
<mgrwt>
<rscale>  0 0.53045296E+02</rscale>
<asrwt>0</asrwt>
<pdfrwt beam="1">  1        2 0.46293800E-01 0.53045296E+02</pdfrwt>
<pdfrwt beam="2">  1       -2 0.35965344E-03 0.53045296E+02</pdfrwt>
<totfact> 0.73055332E+05</totfact>
</mgrwt>
</event>
<event>
 4    1  0.4696545E-002  0.4714253E+02  0.7818608E-02  0.1461393E+00
         -2   -1    0    0  501    0 -0.00000000000E+00  0.00000000000E+00  0.10082419138E+01  0.10082451385E+01  0.25500000000E-02 0.  1.
          2   -1    0    0    0  501  0.00000000000E+00 -0.00000000000E+00 -0.55106194408E+03  0.55106194408E+03  0.25500000000E-02 0.  1.
          2    1    1    2    0  502 -0.15399017190E+02  0.17756166675E+02 -0.29595406238E+03  0.29688586735E+03  0.25500000000E-02 0.  1.
         -2    1    1    2  502    0  0.15399017190E+02 -0.17756166675E+02 -0.25409963978E+03  0.25518432187E+03  0.25500000000E-02 0.  1.
<mgrwt>
<rscale>  0 0.47142535E+02</rscale>
<asrwt>0</asrwt>
<pdfrwt beam="2">  1        2 0.84778520E-01 0.47142535E+02</pdfrwt>
<pdfrwt beam="1">  1       -2 0.15511483E-03 0.47142535E+02</pdfrwt>
<totfact> 0.11954524E+06</totfact>
</mgrwt>
</event>
<event>
 4    1  0.4696545E-002  0.6847812E+02  0.7818608E-02  0.1365346E+00
          2   -1    0    0    0  501  0.00000000000E+00  0.00000000000E+00  0.19391332194E+01  0.19391348961E+01  0.25500000000E-02 0. -1.
         -2   -1    0    0  501    0 -0.00000000000E+00 -0.00000000000E+00 -0.60455502915E+03  0.60455502916E+03  0.25500000000E-02 0. -1.
          2    1    1    2    0  502 -0.10024055253E+02  0.26694450137E+02 -0.46917515445E+03  0.47004085026E+03  0.25500000000E-02 0.  1.
         -2    1    1    2  502    0  0.10024055253E+02 -0.26694450137E+02 -0.13344074149E+03  0.13645331380E+03  0.25500000000E-02 0.  1.
<mgrwt>
<rscale>  0 0.68478121E+02</rscale>
<asrwt>0</asrwt>
<pdfrwt beam="1">  1        2 0.29832880E-03 0.68478121E+02</pdfrwt>
<pdfrwt beam="2">  1       -2 0.93008316E-01 0.68478121E+02</pdfrwt>
<totfact> 0.64721957E+04</totfact>
</mgrwt>
</event>
<event>
 4    1  0.4696545E-002  0.4717177E+02  0.7818608E-02  0.1461222E+00
          2   -1    0    0    0  501  0.00000000000E+00  0.00000000000E+00  0.91584959561E+03  0.91584959561E+03  0.25500000000E-02 0. -1.
         -2   -1    0    0  501    0 -0.00000000000E+00 -0.00000000000E+00 -0.60740475725E+00  0.60741010992E+00  0.25500000000E-02 0. -1.
          2    1    1    2    0  502 -0.21595678922E+02  0.80938777433E+01  0.36163447688E+03  0.36236911993E+03  0.25500000000E-02 0. -1.
         -2    1    1    2  502    0  0.21595678922E+02 -0.80938777433E+01  0.55360771397E+03  0.55408788579E+03  0.25500000000E-02 0. -1.
<mgrwt>
<rscale>  0 0.47171765E+02</rscale>
<asrwt>0</asrwt>
<pdfrwt beam="1">  1        2 0.14089967E+00 0.47171765E+02</pdfrwt>
<pdfrwt beam="2">  1       -2 0.93447478E-04 0.47171765E+02</pdfrwt>
<totfact> 0.13276394E+06</totfact>
</mgrwt>
</event>
<event>
 4    1  0.4696545E-002  0.4889949E+02  0.7818608E-02  0.1451369E+00
         -2   -1    0    0  501    0 -0.00000000000E+00  0.00000000000E+00  0.56294964905E+00  0.56295542441E+00  0.25500000000E-02 0. -1.
          2   -1    0    0    0  501  0.00000000000E+00 -0.00000000000E+00 -0.10618834165E+04  0.10618834165E+04  0.25500000000E-02 0. -1.
          2    1    1    2    0  502  0.23567838070E+02 -0.34387329467E+00 -0.38946934578E+03  0.39018192238E+03  0.25500000000E-02 0.  1.
         -2    1    1    2  502    0 -0.23567838070E+02  0.34387329467E+00 -0.67185112108E+03  0.67226444957E+03  0.25500000000E-02 0.  1.
<mgrwt>
<rscale>  0 0.48899487E+02</rscale>
<asrwt>0</asrwt>
<pdfrwt beam="2">  1        2 0.16336508E+00 0.48899487E+02</pdfrwt>
<pdfrwt beam="1">  1       -2 0.86608933E-04 0.48899487E+02</pdfrwt>
<totfact> 0.12246976E+06</totfact>
</mgrwt>
</event>
<event>
 4    1  0.4696545E-002  0.5092311E+02  0.7818608E-02  0.1440425E+00
          2   -1    0    0    0  501  0.00000000000E+00  0.00000000000E+00  0.99987057737E+03  0.99987057737E+03  0.25500000000E-02 0.  1.
         -2   -1    0    0  501    0 -0.00000000000E+00 -0.00000000000E+00 -0.64837219173E+00  0.64837720620E+00  0.25500000000E-02 0.  1.
          2    1    1    2    0  502  0.15851756270E+02 -0.18036918431E+02  0.33326371070E+03  0.33412768440E+03  0.25500000000E-02 0. -1.
         -2    1    1    2  502    0 -0.15851756270E+02  0.18036918431E+02  0.66595849447E+03  0.66639127018E+03  0.25500000000E-02 0. -1.
<mgrwt>
<rscale>  0 0.50923110E+02</rscale>
<asrwt>0</asrwt>
<pdfrwt beam="1">  1        2 0.15382659E+00 0.50923110E+02</pdfrwt>
<pdfrwt beam="2">  1       -2 0.99749726E-04 0.50923110E+02</pdfrwt>
<totfact> 0.11066130E+06</totfact>
</mgrwt>
</event>
<event>
 4    1  0.4696545E-002  0.4812429E+02  0.7818608E-02  0.1455729E+00
         -2   -1    0    0  501    0 -0.00000000000E+00  0.00000000000E+00  0.49419899314E+02  0.49419899380E+02  0.25500000000E-02 0.  1.
          2   -1    0    0    0  501  0.00000000000E+00 -0.00000000000E+00 -0.11715659930E+02  0.11715660208E+02  0.25500000000E-02 0.  1.
          2    1    1    2    0  502 -0.19553687986E+02 -0.13900743562E+02  0.21197782340E+02  0.32014424375E+02  0.25500000000E-02 0.  1.
         -2    1    1    2  502    0  0.19553687986E+02  0.13900743562E+02  0.16506457044E+02  0.29121135212E+02  0.25500000000E-02 0.  1.
<mgrwt>
<rscale>  0 0.48124287E+02</rscale>
<asrwt>0</asrwt>
<pdfrwt beam="2">  1        2 0.18024093E-02 0.48124287E+02</pdfrwt>
<pdfrwt beam="1">  1       -2 0.76030614E-02 0.48124287E+02</pdfrwt>
<totfact> 0.44771464E+05</totfact>
</mgrwt>
</event>
<event>
 4    1  0.4696545E-002  0.6059565E+02  0.7818608E-02  0.1395349E+00
         -2   -1    0    0  501    0 -0.00000000000E+00  0.00000000000E+00  0.11007781832E+02  0.11007782127E+02  0.25500000000E-02 0.  1.
          2   -1    0    0    0  501  0.00000000000E+00 -0.00000000000E+00 -0.83391750621E+02  0.83391750660E+02  0.25500000000E-02 0.  1.
          2    1    1    2    0  502 -0.21149929796E+02  0.10778465938E+02 -0.65522119332E+02  0.69689618930E+02  0.25500000000E-02 0. -1.
         -2    1    1    2  502    0  0.21149929796E+02 -0.10778465938E+02 -0.68618494572E+01  0.24709913857E+02  0.25500000000E-02 0. -1.
<mgrwt>
<rscale>  0 0.60595650E+02</rscale>
<asrwt>0</asrwt>
<pdfrwt beam="2">  1        2 0.12829500E-01 0.60595650E+02</pdfrwt>
<pdfrwt beam="1">  1       -2 0.16935050E-02 0.60595650E+02</pdfrwt>
<totfact> 0.34875239E+05</totfact>
</mgrwt>
</event>
<event>
 4    1  0.4696545E-002  0.7178218E+02  0.7818608E-02  0.1354135E+00
         -2   -1    0    0  501    0 -0.00000000000E+00  0.00000000000E+00  0.15544009188E+03  0.15544009190E+03  0.25500000000E-02 0.  1.
          2   -1    0    0    0  501  0.00000000000E+00 -0.00000000000E+00 -0.82872467318E+01  0.82872471242E+01  0.25500000000E-02 0.  1.
          2    1    1    2    0  502 -0.18947871446E+02  0.20884443076E+02  0.12421983894E+03  0.12738033673E+03  0.25500000000E-02 0. -1.
         -2    1    1    2  502    0  0.18947871446E+02 -0.20884443076E+02  0.22933006208E+02  0.36347002286E+02  0.25500000000E-02 0. -1.
<mgrwt>
<rscale>  0 0.71782182E+02</rscale>
<asrwt>0</asrwt>
<pdfrwt beam="2">  1        2 0.12749610E-02 0.71782182E+02</pdfrwt>
<pdfrwt beam="1">  1       -2 0.23913862E-01 0.71782182E+02</pdfrwt>
<totfact> 0.12614153E+05</totfact>
</mgrwt>
</event>
<event>
 4    1  0.4696545E-002  0.6634344E+02  0.7818608E-02  0.1372988E+00
         -2   -1    0    0  501    0 -0.00000000000E+00  0.00000000000E+00  0.60184195878E+02  0.60184195932E+02  0.25500000000E-02 0. -1.
          2   -1    0    0    0  501  0.00000000000E+00 -0.00000000000E+00 -0.18283255975E+02  0.18283256152E+02  0.25500000000E-02 0. -1.
          2    1    1    2    0  502  0.87053707126E+01 -0.28722965839E+02  0.37659070194E+02  0.48155973879E+02  0.25500000000E-02 0.  1.
         -2    1    1    2  502    0 -0.87053707126E+01  0.28722965839E+02  0.42418697093E+01  0.30311478205E+02  0.25500000000E-02 0.  1.
<mgrwt>
<rscale>  0 0.66343442E+02</rscale>
<asrwt>0</asrwt>
<pdfrwt beam="2">  1        2 0.28128087E-02 0.66343442E+02</pdfrwt>
<pdfrwt beam="1">  1       -2 0.92591069E-02 0.66343442E+02</pdfrwt>
<totfact> 0.19850095E+05</totfact>
</mgrwt>
</event>
<event>
 4    1  0.4696545E-002  0.5804316E+02  0.7818608E-02  0.1406232E+00
         -2   -1    0    0  501    0 -0.00000000000E+00  0.00000000000E+00  0.78307392168E+00  0.78307807358E+00  0.25500000000E-02 0. -1.
          2   -1    0    0    0  501  0.00000000000E+00 -0.00000000000E+00 -0.10755687351E+04  0.10755687351E+04  0.25500000000E-02 0. -1.
          2    1    1    2    0  502  0.23985524752E+02  0.58933617771E+01 -0.25480835845E+03  0.25600261064E+03  0.25500000000E-02 0. -1.
         -2    1    1    2  502    0 -0.23985524752E+02 -0.58933617771E+01 -0.81997730270E+03  0.82034920251E+03  0.25500000000E-02 0. -1.
<mgrwt>
<rscale>  0 0.58043159E+02</rscale>
<asrwt>0</asrwt>
<pdfrwt beam="2">  1        2 0.16547093E+00 0.58043159E+02</pdfrwt>
<pdfrwt beam="1">  1       -2 0.12047409E-03 0.58043159E+02</pdfrwt>
<totfact> 0.79971976E+05</totfact>
</mgrwt>
</event>
<event>
 4    1  0.4696545E-002  0.1203343E+03  0.7818608E-02  0.1242547E+00
         -2   -1    0    0  501    0 -0.00000000000E+00  0.00000000000E+00  0.16976172519E+01  0.16976191671E+01  0.25500000000E-02 0. -1.
          2   -1    0    0    0  501  0.00000000000E+00 -0.00000000000E+00 -0.21324483536E+04  0.21324483536E+04  0.25500000000E-02 0. -1.
          2    1    1    2    0  502  0.39413384336E+02  0.42327071653E+02 -0.13595262244E+04  0.13607558748E+04  0.25500000000E-02 0. -1.
         -2    1    1    2  502    0 -0.39413384336E+02 -0.42327071653E+02 -0.77122451191E+03  0.77339009797E+03  0.25500000000E-02 0. -1.
<mgrwt>
<rscale>  0 0.12033425E+03</rscale>
<asrwt>0</asrwt>
<pdfrwt beam="2">  1        2 0.32806683E+00 0.12033425E+03</pdfrwt>
<pdfrwt beam="1">  1       -2 0.26117374E-03 0.12033425E+03</pdfrwt>
<totfact> 0.87653324E+04</totfact>
</mgrwt>
</event>
<event>
 4    1  0.4696545E-002  0.4424153E+02  0.7818608E-02  0.1479133E+00
          2   -1    0    0    0  501  0.00000000000E+00  0.00000000000E+00  0.24927012118E+02  0.24927012248E+02  0.25500000000E-02 0.  1.
         -2   -1    0    0  501    0 -0.00000000000E+00 -0.00000000000E+00 -0.19630437965E+02  0.19630438131E+02  0.25500000000E-02 0.  1.
          2    1    1    2    0  502 -0.17317498529E+02  0.12838258115E+02  0.76447147718E+01  0.22872653916E+02  0.25500000000E-02 0. -1.
         -2    1    1    2  502    0  0.17317498529E+02 -0.12838258115E+02 -0.23481406191E+01  0.21684796462E+02  0.25500000000E-02 0. -1.
<mgrwt>
<rscale>  0 0.44241527E+02</rscale>
<asrwt>0</asrwt>
<pdfrwt beam="1">  1        2 0.38349250E-02 0.44241527E+02</pdfrwt>
<pdfrwt beam="2">  1       -2 0.30200674E-02 0.44241527E+02</pdfrwt>
<totfact> 0.62724592E+05</totfact>
</mgrwt>
</event>
<event>
 4    1  0.4696545E-002  0.4089299E+02  0.7818608E-02  0.1501741E+00
         -2   -1    0    0  501    0 -0.00000000000E+00  0.00000000000E+00  0.13363573050E+03  0.13363573052E+03  0.25500000000E-02 0.  1.
          2   -1    0    0    0  501  0.00000000000E+00 -0.00000000000E+00 -0.31283487807E+01  0.31283498199E+01  0.25500000000E-02 0.  1.
          2    1    1    2    0  502 -0.11798441716E+02 -0.16698413139E+02  0.65714841331E+02  0.68822093880E+02  0.25500000000E-02 0.  1.
         -2    1    1    2  502    0  0.11798441716E+02  0.16698413139E+02  0.64792540386E+02  0.67941986463E+02  0.25500000000E-02 0.  1.
<mgrwt>
<rscale>  0 0.40892994E+02</rscale>
<asrwt>0</asrwt>
<pdfrwt beam="2">  1        2 0.48128459E-03 0.40892994E+02</pdfrwt>
<pdfrwt beam="1">  1       -2 0.20559340E-01 0.40892994E+02</pdfrwt>
<totfact> 0.53038992E+05</totfact>
</mgrwt>
</event>
<event>
 4    1  0.4696545E-002  0.1661028E+03  0.7818608E-02  0.1181974E+00
         -2   -1    0    0  501    0 -0.00000000000E+00  0.00000000000E+00  0.24010587829E+03  0.24010587830E+03  0.25500000000E-02 0. -1.
          2   -1    0    0    0  501  0.00000000000E+00 -0.00000000000E+00 -0.28727051303E+02  0.28727051416E+02  0.25500000000E-02 0. -1.
          2    1    1    2    0  502  0.48662113567E+02  0.51339228447E+02  0.35256693022E+02  0.79036397208E+02  0.25500000000E-02 0.  1.
         -2    1    1    2  502    0 -0.48662113567E+02 -0.51339228447E+02  0.17612213397E+03  0.18979653251E+03  0.25500000000E-02 0.  1.
<mgrwt>
<rscale>  0 0.16610279E+03</rscale>
<asrwt>0</asrwt>
<pdfrwt beam="2">  1        2 0.44195463E-02 0.16610279E+03</pdfrwt>
<pdfrwt beam="1">  1       -2 0.36939366E-01 0.16610279E+03</pdfrwt>
<totfact> 0.12239886E+04</totfact>
</mgrwt>
</event>
<event>
 4    1  0.4696545E-002  0.6382199E+02  0.7818608E-02  0.1382458E+00
          2   -1    0    0    0  501  0.00000000000E+00  0.00000000000E+00  0.78451817672E+03  0.78451817673E+03  0.25500000000E-02 0.  1.
         -2   -1    0    0  501    0 -0.00000000000E+00 -0.00000000000E+00 -0.12980077513E+01  0.12980102561E+01  0.25500000000E-02 0.  1.
          2    1    1    2    0  502  0.16289781682E+02  0.25842870267E+02  0.50519410597E+03  0.50611687943E+03  0.25500000000E-02 0. -1.
         -2    1    1    2  502    0 -0.16289781682E+02 -0.25842870267E+02  0.27802606300E+03  0.27969930755E+03  0.25500000000E-02 0. -1.
<mgrwt>
<rscale>  0 0.63821992E+02</rscale>
<asrwt>0</asrwt>
<pdfrwt beam="1">  1        2 0.12069495E+00 0.63821992E+02</pdfrwt>
<pdfrwt beam="2">  1       -2 0.19969394E-03 0.63821992E+02</pdfrwt>
<totfact> 0.61122611E+05</totfact>
</mgrwt>
</event>
<event>
 4    1  0.4696545E-002  0.1264003E+03  0.7818608E-02  0.1232897E+00
          2   -1    0    0    0  501  0.00000000000E+00  0.00000000000E+00  0.71829913072E+02  0.71829913117E+02  0.25500000000E-02 0.  1.
         -2   -1    0    0  501    0 -0.00000000000E+00 -0.00000000000E+00 -0.55607160616E+02  0.55607160675E+02  0.25500000000E-02 0.  1.
          2    1    1    2    0  502 -0.40962861288E+02 -0.11368827712E+02 -0.39038140512E+02  0.57716398619E+02  0.25500000000E-02 0. -1.
         -2    1    1    2  502    0  0.40962861288E+02  0.11368827712E+02  0.55260892968E+02  0.69720675173E+02  0.25500000000E-02 0. -1.
<mgrwt>
<rscale>  0 0.12640028E+03</rscale>
<asrwt>0</asrwt>
<pdfrwt beam="1">  1        2 0.11050756E-01 0.12640028E+03</pdfrwt>
<pdfrwt beam="2">  1       -2 0.85549478E-02 0.12640028E+03</pdfrwt>
<totfact> 0.43480208E+04</totfact>
</mgrwt>
</event>
<event>
 4    1  0.4696545E-002  0.6110144E+02  0.7818608E-02  0.1393267E+00
          2   -1    0    0    0  501  0.00000000000E+00  0.00000000000E+00  0.44223900556E+03  0.44223900557E+03  0.25500000000E-02 0.  1.
         -2   -1    0    0  501    0 -0.00000000000E+00 -0.00000000000E+00 -0.21105014424E+01  0.21105029829E+01  0.25500000000E-02 0.  1.
          2    1    1    2    0  502  0.10024413703E+02  0.25490101424E+02  0.12165589395E+03  0.12470120560E+03  0.25500000000E-02 0. -1.
         -2    1    1    2  502    0 -0.10024413703E+02 -0.25490101424E+02  0.31847261017E+03  0.31964830295E+03  0.25500000000E-02 0. -1.
<mgrwt>
<rscale>  0 0.61101437E+02</rscale>
<asrwt>0</asrwt>
<pdfrwt beam="1">  1        2 0.68036691E-01 0.61101437E+02</pdfrwt>
<pdfrwt beam="2">  1       -2 0.32469303E-03 0.61101437E+02</pdfrwt>
<totfact> 0.58417426E+05</totfact>
</mgrwt>
</event>
<event>
 4    1  0.4696545E-002  0.5560511E+02  0.7818608E-02  0.1417259E+00
         -2   -1    0    0  501    0 -0.00000000000E+00  0.00000000000E+00  0.12644381738E+03  0.12644381740E+03  0.25500000000E-02 0. -1.
          2   -1    0    0    0  501  0.00000000000E+00 -0.00000000000E+00 -0.61132447297E+01  0.61132452616E+01  0.25500000000E-02 0. -1.
          2    1    1    2    0  502 -0.26377548571E+02 -0.47756149250E+01  0.77748144695E+02  0.82239622911E+02  0.25500000000E-02 0.  1.
         -2    1    1    2  502    0  0.26377548571E+02  0.47756149250E+01  0.42582427953E+02  0.50317439754E+02  0.25500000000E-02 0.  1.
<mgrwt>
<rscale>  0 0.55605109E+02</rscale>
<asrwt>0</asrwt>
<pdfrwt beam="2">  1        2 0.94049927E-03 0.55605109E+02</pdfrwt>
<pdfrwt beam="1">  1       -2 0.19452894E-01 0.55605109E+02</pdfrwt>
<totfact> 0.25496163E+05</totfact>
</mgrwt>
</event>
<event>
 4    1  0.4696545E-002  0.4191047E+02  0.7818608E-02  0.1494605E+00
          2   -1    0    0    0  501  0.00000000000E+00  0.00000000000E+00  0.14020969002E+03  0.14020969005E+03  0.25500000000E-02 0. -1.
         -2   -1    0    0  501    0 -0.00000000000E+00 -0.00000000000E+00 -0.31318926468E+01  0.31318936849E+01  0.25500000000E-02 0. -1.
          2    1    1    2    0  502  0.19674864230E+02  0.58980017589E+01  0.54339952574E+02  0.58092315839E+02  0.25500000000E-02 0.  1.
         -2    1    1    2  502    0 -0.19674864230E+02 -0.58980017589E+01  0.82737844801E+02  0.85249267891E+02  0.25500000000E-02 0.  1.
<mgrwt>
<rscale>  0 0.41910465E+02</rscale>
<asrwt>0</asrwt>
<pdfrwt beam="1">  1        2 0.21570718E-01 0.41910465E+02</pdfrwt>
<pdfrwt beam="2">  1       -2 0.48182980E-03 0.41910465E+02</pdfrwt>
<totfact> 0.10210452E+06</totfact>
</mgrwt>
</event>
<event>
 4    1  0.4696545E-002  0.6037850E+02  0.7818608E-02  0.1396250E+00
         -2   -1    0    0  501    0 -0.00000000000E+00  0.00000000000E+00  0.18358463863E+01  0.18358481573E+01  0.25500000000E-02 0.  1.
          2   -1    0    0    0  501  0.00000000000E+00 -0.00000000000E+00 -0.49644155065E+03  0.49644155065E+03  0.25500000000E-02 0.  1.
          2    1    1    2    0  502  0.27157195743E+02  0.61079666889E+00 -0.13859917376E+03  0.14123603409E+03  0.25500000000E-02 0. -1.
         -2    1    1    2  502    0 -0.27157195743E+02 -0.61079666889E+00 -0.35600653050E+03  0.35704136472E+03  0.25500000000E-02 0. -1.
<mgrwt>
<rscale>  0 0.60378502E+02</rscale>
<asrwt>0</asrwt>
<pdfrwt beam="2">  1        2 0.76375516E-01 0.60378502E+02</pdfrwt>
<pdfrwt beam="1">  1       -2 0.28243844E-03 0.60378502E+02</pdfrwt>
<totfact> 0.62504637E+05</totfact>
</mgrwt>
</event>
<event>
 4    1  0.4696545E-002  0.5028559E+02  0.7818608E-02  0.1443807E+00
          2   -1    0    0    0  501  0.00000000000E+00  0.00000000000E+00  0.19432642741E+03  0.19432642743E+03  0.25500000000E-02 0. -1.
         -2   -1    0    0  501    0 -0.00000000000E+00 -0.00000000000E+00 -0.32530835702E+01  0.32530845696E+01  0.25500000000E-02 0. -1.
          2    1    1    2    0  502 -0.24930151529E+02 -0.31034783103E+01  0.91575886042E+02  0.94959396290E+02  0.25500000000E-02 0.  1.
         -2    1    1    2  502    0  0.24930151529E+02  0.31034783103E+01  0.99497457797E+02  0.10262011571E+03  0.25500000000E-02 0.  1.
<mgrwt>
<rscale>  0 0.50285593E+02</rscale>
<asrwt>0</asrwt>
<pdfrwt beam="1">  1        2 0.29896384E-01 0.50285593E+02</pdfrwt>
<pdfrwt beam="2">  1       -2 0.50047429E-03 0.50285593E+02</pdfrwt>
<totfact> 0.71887169E+05</totfact>
</mgrwt>
</event>
<event>
 4    1  0.4696545E-002  0.1378129E+03  0.7818608E-02  0.1216302E+00
          2   -1    0    0    0  501  0.00000000000E+00  0.00000000000E+00  0.17357849988E+03  0.17357849990E+03  0.25500000000E-02 0.  1.
         -2   -1    0    0  501    0 -0.00000000000E+00 -0.00000000000E+00 -0.27354197672E+02  0.27354197791E+02  0.25500000000E-02 0.  1.
          2    1    1    2    0  502 -0.10091393340E+02  0.46985313420E+02  0.14511255433E+03  0.15286304108E+03  0.25500000000E-02 0. -1.
         -2    1    1    2  502    0  0.10091393340E+02 -0.46985313420E+02  0.11117478753E+01  0.48069656610E+02  0.25500000000E-02 0. -1.
<mgrwt>
<rscale>  0 0.13781293E+03</rscale>
<asrwt>0</asrwt>
<pdfrwt beam="1">  1        2 0.26704385E-01 0.13781293E+03</pdfrwt>
<pdfrwt beam="2">  1       -2 0.42083380E-02 0.13781293E+03</pdfrwt>
<totfact> 0.46642557E+04</totfact>
</mgrwt>
</event>
<event>
 4    1  0.4696545E-002  0.5071479E+02  0.7818608E-02  0.1441524E+00
         -2   -1    0    0  501    0 -0.00000000000E+00  0.00000000000E+00  0.33674618249E+02  0.33674618345E+02  0.25500000000E-02 0.  1.
          2   -1    0    0    0  501  0.00000000000E+00 -0.00000000000E+00 -0.19094423396E+02  0.19094423566E+02  0.25500000000E-02 0.  1.
          2    1    1    2    0  502 -0.13586101329E+02  0.15890402702E+02  0.22220919072E+02  0.30509937697E+02  0.25500000000E-02 0.  1.
         -2    1    1    2  502    0  0.13586101329E+02 -0.15890402702E+02 -0.76407242195E+01  0.22259104215E+02  0.25500000000E-02 0.  1.
<mgrwt>
<rscale>  0 0.50714788E+02</rscale>
<asrwt>0</asrwt>
<pdfrwt beam="2">  1        2 0.29376036E-02 0.50714788E+02</pdfrwt>
<pdfrwt beam="1">  1       -2 0.51807106E-02 0.50714788E+02</pdfrwt>
<totfact> 0.42084811E+05</totfact>
</mgrwt>
</event>
<event>
 4    1  0.4696545E-002  0.4788423E+02  0.7818608E-02  0.1457099E+00
          2   -1    0    0    0  501  0.00000000000E+00  0.00000000000E+00  0.74590722246E+02  0.74590722289E+02  0.25500000000E-02 0. -1.
         -2   -1    0    0  501    0 -0.00000000000E+00 -0.00000000000E+00 -0.76849357162E+01  0.76849361393E+01  0.25500000000E-02 0. -1.
          2    1    1    2    0  502  0.93138787721E+01 -0.22048353820E+02  0.32441221561E+02  0.40315147363E+02  0.25500000000E-02 0. -1.
         -2    1    1    2  502    0 -0.93138787721E+01  0.22048353820E+02  0.34464564968E+02  0.41960511066E+02  0.25500000000E-02 0. -1.
<mgrwt>
<rscale>  0 0.47884232E+02</rscale>
<asrwt>0</asrwt>
<pdfrwt beam="1">  1        2 0.11475495E-01 0.47884232E+02</pdfrwt>
<pdfrwt beam="2">  1       -2 0.11822979E-02 0.47884232E+02</pdfrwt>
<totfact> 0.62215756E+05</totfact>
</mgrwt>
</event>
<event>
 4    1  0.4696545E-002  0.5028682E+02  0.7818608E-02  0.1443801E+00
          2   -1    0    0    0  501  0.00000000000E+00  0.00000000000E+00  0.79797974347E+01  0.79797978422E+01  0.25500000000E-02 0.  1.
         -2   -1    0    0  501    0 -0.00000000000E+00 -0.00000000000E+00 -0.79223955867E+02  0.79223955908E+02  0.25500000000E-02 0.  1.
          2    1    1    2    0  502 -0.41161276803E+01  0.24458297170E+02 -0.28463613941E+02  0.37753518149E+02  0.25500000000E-02 0. -1.
         -2    1    1    2  502    0  0.41161276803E+01 -0.24458297170E+02 -0.42780544491E+02  0.49450235601E+02  0.25500000000E-02 0. -1.
<mgrwt>
<rscale>  0 0.50286823E+02</rscale>
<asrwt>0</asrwt>
<pdfrwt beam="1">  1        2 0.12276612E-02 0.50286823E+02</pdfrwt>
<pdfrwt beam="2">  1       -2 0.12188300E-01 0.50286823E+02</pdfrwt>
<totfact> 0.36768529E+05</totfact>
</mgrwt>
</event>
<event>
 4    1  0.4696545E-002  0.4311957E+02  0.7818608E-02  0.1486434E+00
          2   -1    0    0    0  501  0.00000000000E+00  0.00000000000E+00  0.14450334797E+02  0.14450335022E+02  0.25500000000E-02 0.  1.
         -2   -1    0    0  501    0 -0.00000000000E+00 -0.00000000000E+00 -0.32167027572E+02  0.32167027673E+02  0.25500000000E-02 0.  1.
          2    1    1    2    0  502  0.94591820543E+00 -0.20962388897E+02 -0.35062302627E+01  0.21274636700E+02  0.25500000000E-02 0.  1.
         -2    1    1    2  502    0 -0.94591820543E+00  0.20962388897E+02 -0.14210462513E+02  0.25342725995E+02  0.25500000000E-02 0.  1.
<mgrwt>
<rscale>  0 0.43119570E+02</rscale>
<asrwt>0</asrwt>
<pdfrwt beam="1">  1        2 0.22231285E-02 0.43119570E+02</pdfrwt>
<pdfrwt beam="2">  1       -2 0.49487735E-02 0.43119570E+02</pdfrwt>
<totfact> 0.62109572E+05</totfact>
</mgrwt>
</event>
<event>
 4    1  0.4696545E-002  0.1324148E+03  0.7818608E-02  0.1223916E+00
         -2   -1    0    0  501    0 -0.00000000000E+00  0.00000000000E+00  0.45566637916E+01  0.45566645051E+01  0.25500000000E-02 0.  1.
          2   -1    0    0    0  501  0.00000000000E+00 -0.00000000000E+00 -0.96197959688E+03  0.96197959689E+03  0.25500000000E-02 0.  1.
          2    1    1    2    0  502  0.30146303330E+02  0.26587554910E+02 -0.94701220731E+02  0.10287866103E+03  0.25500000000E-02 0.  1.
         -2    1    1    2  502    0 -0.30146303330E+02 -0.26587554910E+02 -0.86272171236E+03  0.86365760036E+03  0.25500000000E-02 0.  1.
<mgrwt>
<rscale>  0 0.13241477E+03</rscale>
<asrwt>0</asrwt>
<pdfrwt beam="2">  1        2 0.14799670E+00 0.13241477E+03</pdfrwt>
<pdfrwt beam="1">  1       -2 0.70102602E-03 0.13241477E+03</pdfrwt>
<totfact> 0.91714266E+04</totfact>
</mgrwt>
</event>
<event>
 4    1  0.4696545E-002  0.7820617E+02  0.7818608E-02  0.1334221E+00
          2   -1    0    0    0  501  0.00000000000E+00  0.00000000000E+00  0.46503934588E+03  0.46503934589E+03  0.25500000000E-02 0. -1.
         -2   -1    0    0  501    0 -0.00000000000E+00 -0.00000000000E+00 -0.32880037845E+01  0.32880047734E+01  0.25500000000E-02 0. -1.
          2    1    1    2    0  502 -0.32549282989E+02 -0.20692780806E+02  0.26940855391E+03  0.27215549954E+03  0.25500000000E-02 0. -1.
         -2    1    1    2  502    0  0.32549282989E+02  0.20692780806E+02  0.19234278819E+03  0.19617185113E+03  0.25500000000E-02 0. -1.
<mgrwt>
<rscale>  0 0.78206173E+02</rscale>
<asrwt>0</asrwt>
<pdfrwt beam="1">  1        2 0.71544474E-01 0.78206173E+02</pdfrwt>
<pdfrwt beam="2">  1       -2 0.50584710E-03 0.78206173E+02</pdfrwt>
<totfact> 0.31485068E+05</totfact>
</mgrwt>
</event>
<event>
 4    1  0.4696545E-002  0.1187736E+03  0.7818608E-02  0.1245134E+00
         -2   -1    0    0  501    0 -0.00000000000E+00  0.00000000000E+00  0.53961671118E+02  0.53961671178E+02  0.25500000000E-02 0. -1.
          2   -1    0    0    0  501  0.00000000000E+00 -0.00000000000E+00 -0.65357396190E+02  0.65357396240E+02  0.25500000000E-02 0. -1.
          2    1    1    2    0  502 -0.18448224508E+02 -0.48486623973E+02  0.23339971423E+02  0.56886237038E+02  0.25500000000E-02 0. -1.
         -2    1    1    2  502    0  0.18448224508E+02  0.48486623973E+02 -0.34735696496E+02  0.62432830380E+02  0.25500000000E-02 0. -1.
<mgrwt>
<rscale>  0 0.11877364E+03</rscale>
<asrwt>0</asrwt>
<pdfrwt beam="2">  1        2 0.10054984E-01 0.11877364E+03</pdfrwt>
<pdfrwt beam="1">  1       -2 0.83017955E-02 0.11877364E+03</pdfrwt>
<totfact> 0.50690571E+04</totfact>
</mgrwt>
</event>
<event>
 4    1  0.4696545E-002  0.4853183E+02  0.7818608E-02  0.1453425E+00
         -2   -1    0    0  501    0 -0.00000000000E+00  0.00000000000E+00  0.30255725480E+00  0.30256800050E+00  0.25500000000E-02 0. -1.
          2   -1    0    0    0  501  0.00000000000E+00 -0.00000000000E+00 -0.19461574881E+04  0.19461574881E+04  0.25500000000E-02 0. -1.
          2    1    1    2    0  502 -0.15635707850E+02  0.15372219832E+02 -0.55602033188E+03  0.55645250468E+03  0.25500000000E-02 0.  1.
         -2    1    1    2  502    0  0.15635707850E+02 -0.15372219832E+02 -0.13898345990E+04  0.13900075515E+04  0.25500000000E-02 0.  1.
<mgrwt>
<rscale>  0 0.48531826E+02</rscale>
<asrwt>0</asrwt>
<pdfrwt beam="2">  1        2 0.29939882E+00 0.48531826E+02</pdfrwt>
<pdfrwt beam="1">  1       -2 0.46549655E-04 0.48531826E+02</pdfrwt>
<totfact> 0.10152472E+06</totfact>
</mgrwt>
</event>
<event>
 4    1  0.4696545E-002  0.6087402E+02  0.7818608E-02  0.1394200E+00
          2   -1    0    0    0  501  0.00000000000E+00  0.00000000000E+00  0.30066582486E+03  0.30066582487E+03  0.25500000000E-02 0.  1.
         -2   -1    0    0  501    0 -0.00000000000E+00 -0.00000000000E+00 -0.30811995369E+01  0.30812005921E+01  0.25500000000E-02 0.  1.
          2    1    1    2    0  502  0.26103771548E+02  0.15503434762E+02  0.13803456395E+03  0.14133401654E+03  0.25500000000E-02 0. -1.
         -2    1    1    2  502    0 -0.26103771548E+02 -0.15503434762E+02  0.15955006137E+03  0.16241300892E+03  0.25500000000E-02 0. -1.
<mgrwt>
<rscale>  0 0.60874019E+02</rscale>
<asrwt>0</asrwt>
<pdfrwt beam="1">  1        2 0.46256293E-01 0.60874019E+02</pdfrwt>
<pdfrwt beam="2">  1       -2 0.47403065E-03 0.60874019E+02</pdfrwt>
<totfact> 0.51568697E+05</totfact>
</mgrwt>
</event>
<event>
 4    1  0.4696545E-002  0.4821104E+02  0.7818608E-02  0.1455237E+00
          2   -1    0    0    0  501  0.00000000000E+00  0.00000000000E+00  0.82643246142E+02  0.82643246181E+02  0.25500000000E-02 0. -1.
         -2   -1    0    0  501    0 -0.00000000000E+00 -0.00000000000E+00 -0.70311386179E+01  0.70311390803E+01  0.25500000000E-02 0. -1.
          2    1    1    2    0  502  0.23015601659E+02 -0.60290262018E+01  0.45012126133E+02  0.50913245645E+02  0.25500000000E-02 0. -1.
         -2    1    1    2  502    0 -0.23015601659E+02  0.60290262018E+01  0.30599981391E+02  0.38761139616E+02  0.25500000000E-02 0. -1.
<mgrwt>
<rscale>  0 0.48211042E+02</rscale>
<asrwt>0</asrwt>
<pdfrwt beam="1">  1        2 0.12714346E-01 0.48211042E+02</pdfrwt>
<pdfrwt beam="2">  1       -2 0.10817136E-02 0.48211042E+02</pdfrwt>
<totfact> 0.62618149E+05</totfact>
</mgrwt>
</event>
<event>
 4    1  0.4696545E-002  0.5483777E+02  0.7818608E-02  0.1420868E+00
          2   -1    0    0    0  501  0.00000000000E+00  0.00000000000E+00  0.34930941752E+02  0.34930941845E+02  0.25500000000E-02 0. -1.
         -2   -1    0    0  501    0 -0.00000000000E+00 -0.00000000000E+00 -0.21522331095E+02  0.21522331246E+02  0.25500000000E-02 0. -1.
          2    1    1    2    0  502 -0.54730707989E+00 -0.27177956947E+02  0.30133794490E+01  0.27349978996E+02  0.25500000000E-02 0. -1.
         -2    1    1    2  502    0  0.54730707989E+00  0.27177956947E+02  0.10395231208E+02  0.29103294096E+02  0.25500000000E-02 0. -1.
<mgrwt>
<rscale>  0 0.54837772E+02</rscale>
<asrwt>0</asrwt>
<pdfrwt beam="1">  1        2 0.53739910E-02 0.54837772E+02</pdfrwt>
<pdfrwt beam="2">  1       -2 0.33111279E-02 0.54837772E+02</pdfrwt>
<totfact> 0.37773370E+05</totfact>
</mgrwt>
</event>
<event>
 4    1  0.4696545E-002  0.4910505E+02  0.7818608E-02  0.1450229E+00
          2   -1    0    0    0  501  0.00000000000E+00  0.00000000000E+00  0.56183251080E+03  0.56183251080E+03  0.25500000000E-02 0.  1.
         -2   -1    0    0  501    0 -0.00000000000E+00 -0.00000000000E+00 -0.10729631842E+01  0.10729662143E+01  0.25500000000E-02 0.  1.
          2    1    1    2    0  502 -0.10561678051E+01  0.24469083864E+02  0.26060803159E+03  0.26175637087E+03  0.25500000000E-02 0. -1.
         -2    1    1    2  502    0  0.10561678051E+01 -0.24469083864E+02  0.30015151602E+03  0.30114910614E+03  0.25500000000E-02 0. -1.
<mgrwt>
<rscale>  0 0.49105049E+02</rscale>
<asrwt>0</asrwt>
<pdfrwt beam="1">  1        2 0.86435784E-01 0.49105049E+02</pdfrwt>
<pdfrwt beam="2">  1       -2 0.16507147E-03 0.49105049E+02</pdfrwt>
<totfact> 0.10873460E+06</totfact>
</mgrwt>
</event>
<event>
 4    1  0.4696545E-002  0.7634034E+02  0.7818608E-02  0.1339770E+00
          2   -1    0    0    0  501  0.00000000000E+00  0.00000000000E+00  0.11095574619E+04  0.11095574619E+04  0.25500000000E-02 0. -1.
         -2   -1    0    0  501    0 -0.00000000000E+00 -0.00000000000E+00 -0.13131006733E+01  0.13131031494E+01  0.25500000000E-02 0. -1.
          2    1    1    2    0  502  0.12526158776E+02 -0.36029853985E+02  0.53402739252E+03  0.53538800043E+03  0.25500000000E-02 0.  1.
         -2    1    1    2  502    0 -0.12526158776E+02  0.36029853985E+02  0.57421696875E+03  0.57548256466E+03  0.25500000000E-02 0.  1.
<mgrwt>
<rscale>  0 0.76340344E+02</rscale>
<asrwt>0</asrwt>
<pdfrwt beam="1">  1        2 0.17070101E+00 0.76340344E+02</pdfrwt>
<pdfrwt beam="2">  1       -2 0.20201584E-03 0.76340344E+02</pdfrwt>
<totfact> 0.39754819E+05</totfact>
</mgrwt>
</event>
<event>
 4    1  0.4696545E-002  0.7335620E+02  0.7818608E-02  0.1349038E+00
          2   -1    0    0    0  501  0.00000000000E+00  0.00000000000E+00  0.10691601449E+04  0.10691601449E+04  0.25500000000E-02 0. -1.
         -2   -1    0    0  501    0 -0.00000000000E+00 -0.00000000000E+00 -0.12582600777E+01  0.12582626616E+01  0.25500000000E-02 0. -1.
          2    1    1    2    0  502  0.37193664435E+00 -0.26371777330E+02  0.90588374268E+03  0.90626760079E+03  0.25500000000E-02 0. -1.
         -2    1    1    2  502    0 -0.37193664435E+00  0.26371777330E+02  0.16201814218E+03  0.16415080681E+03  0.25500000000E-02 0. -1.
<mgrwt>
<rscale>  0 0.73356197E+02</rscale>
<asrwt>0</asrwt>
<pdfrwt beam="1">  1        2 0.16448512E+00 0.73356197E+02</pdfrwt>
<pdfrwt beam="2">  1       -2 0.19357992E-03 0.73356197E+02</pdfrwt>
<totfact> 0.44099736E+05</totfact>
</mgrwt>
</event>
<event>
 4    1  0.4696545E-002  0.4630228E+02  0.7818608E-02  0.1466372E+00
          2   -1    0    0    0  501  0.00000000000E+00  0.00000000000E+00  0.37610033327E+01  0.37610041972E+01  0.25500000000E-02 0.  1.
         -2   -1    0    0  501    0 -0.00000000000E+00 -0.00000000000E+00 -0.14250859707E+03  0.14250859709E+03  0.25500000000E-02 0.  1.
          2    1    1    2    0  502  0.52862161238E+01 -0.20458072008E+02 -0.99259241814E+02  0.10148336752E+03  0.25500000000E-02 0.  1.
         -2    1    1    2  502    0 -0.52862161238E+01  0.20458072008E+02 -0.39488351923E+02  0.44786233770E+02  0.25500000000E-02 0.  1.
<mgrwt>
<rscale>  0 0.46302284E+02</rscale>
<asrwt>0</asrwt>
<pdfrwt beam="1">  1        2 0.57861607E-03 0.46302284E+02</pdfrwt>
<pdfrwt beam="2">  1       -2 0.21924396E-01 0.46302284E+02</pdfrwt>
<totfact> 0.38489136E+05</totfact>
</mgrwt>
</event>
<event>
 4    1  0.4696545E-002  0.9130247E+02  0.7818608E-02  0.1299728E+00
         -2   -1    0    0  501    0 -0.00000000000E+00  0.00000000000E+00  0.13244914007E+01  0.13244938554E+01  0.25500000000E-02 0. -1.
          2   -1    0    0    0  501  0.00000000000E+00 -0.00000000000E+00 -0.15734591861E+04  0.15734591861E+04  0.25500000000E-02 0. -1.
          2    1    1    2    0  502  0.26013155297E+02 -0.25143481339E+02 -0.30585535177E+03  0.30798762170E+03  0.25500000000E-02 0.  1.
         -2    1    1    2  502    0 -0.26013155297E+02  0.25143481339E+02 -0.12662793429E+04  0.12667960582E+04  0.25500000000E-02 0.  1.
<mgrwt>
<rscale>  0 0.91302466E+02</rscale>
<asrwt>0</asrwt>
<pdfrwt beam="2">  1        2 0.24206915E+00 0.91302466E+02</pdfrwt>
<pdfrwt beam="1">  1       -2 0.20376936E-03 0.91302466E+02</pdfrwt>
<totfact> 0.23049988E+05</totfact>
</mgrwt>
</event>
<event>
 4    1  0.4696545E-002  0.7971734E+02  0.7818608E-02  0.1329856E+00
          2   -1    0    0    0  501  0.00000000000E+00  0.00000000000E+00  0.57285685655E+02  0.57285685711E+02  0.25500000000E-02 0.  1.
         -2   -1    0    0  501    0 -0.00000000000E+00 -0.00000000000E+00 -0.27733165343E+02  0.27733165460E+02  0.25500000000E-02 0.  1.
          2    1    1    2    0  502 -0.23910545212E+01  0.38822259854E+02  0.54891974515E+01  0.39281246124E+02  0.25500000000E-02 0. -1.
         -2    1    1    2  502    0  0.23910545212E+01 -0.38822259854E+02  0.24063322860E+02  0.45737605047E+02  0.25500000000E-02 0. -1.
<mgrwt>
<rscale>  0 0.79717336E+02</rscale>
<asrwt>0</asrwt>
<pdfrwt beam="1">  1        2 0.88131823E-02 0.79717336E+02</pdfrwt>
<pdfrwt beam="2">  1       -2 0.42666409E-02 0.79717336E+02</pdfrwt>
<totfact> 0.15245160E+05</totfact>
</mgrwt>
</event>
<event>
 4    1  0.4696545E-002  0.4722893E+02  0.7818608E-02  0.1460888E+00
         -2   -1    0    0  501    0 -0.00000000000E+00  0.00000000000E+00  0.25300643697E+03  0.25300643698E+03  0.25500000000E-02 0.  1.
          2   -1    0    0    0  501  0.00000000000E+00 -0.00000000000E+00 -0.22040650762E+01  0.22040665513E+01  0.25500000000E-02 0.  1.
          2    1    1    2    0  502 -0.15361206344E+02  0.17862274222E+02  0.13414003217E+03  0.13619315598E+03  0.25500000000E-02 0.  1.
         -2    1    1    2  502    0  0.15361206344E+02 -0.17862274222E+02  0.11666233973E+03  0.11901734755E+03  0.25500000000E-02 0.  1.
<mgrwt>
<rscale>  0 0.47228925E+02</rscale>
<asrwt>0</asrwt>
<pdfrwt beam="2">  1        2 0.33908711E-03 0.47228925E+02</pdfrwt>
<pdfrwt beam="1">  1       -2 0.38924061E-01 0.47228925E+02</pdfrwt>
<totfact> 0.29176878E+05</totfact>
</mgrwt>
</event>
<event>
 4    1  0.4696545E-002  0.6312779E+02  0.7818608E-02  0.1385156E+00
         -2   -1    0    0  501    0 -0.00000000000E+00  0.00000000000E+00  0.73873460186E+00  0.73873900295E+00  0.25500000000E-02 0.  1.
          2   -1    0    0    0  501  0.00000000000E+00 -0.00000000000E+00 -0.13486259008E+04  0.13486259008E+04  0.25500000000E-02 0.  1.
          2    1    1    2    0  502  0.12468963426E+02 -0.18773686612E+02 -0.11463064425E+04  0.11465279703E+04  0.25500000000E-02 0. -1.
         -2    1    1    2  502    0 -0.12468963426E+02  0.18773686612E+02 -0.20158072366E+03  0.20283666955E+03  0.25500000000E-02 0. -1.
<mgrwt>
<rscale>  0 0.63127794E+02</rscale>
<asrwt>0</asrwt>
<pdfrwt beam="2">  1        2 0.20747894E+00 0.63127794E+02</pdfrwt>
<pdfrwt beam="1">  1       -2 0.11365290E-03 0.63127794E+02</pdfrwt>
<totfact> 0.63050249E+05</totfact>
</mgrwt>
</event>
<event>
 4    1  0.4696545E-002  0.4542046E+02  0.7818608E-02  0.1471734E+00
         -2   -1    0    0  501    0 -0.00000000000E+00  0.00000000000E+00  0.39999228972E+03  0.39999228973E+03  0.25500000000E-02 0. -1.
          2   -1    0    0    0  501  0.00000000000E+00 -0.00000000000E+00 -0.12894101964E+01  0.12894127179E+01  0.25500000000E-02 0. -1.
          2    1    1    2    0  502 -0.14167396896E+02 -0.16508751014E+02  0.14175501335E+03  0.14341456625E+03  0.25500000000E-02 0.  1.
         -2    1    1    2  502    0  0.14167396896E+02  0.16508751014E+02  0.25694786618E+03  0.25786713620E+03  0.25500000000E-02 0.  1.
<mgrwt>
<rscale>  0 0.45420464E+02</rscale>
<asrwt>0</asrwt>
<pdfrwt beam="2">  1        2 0.19837085E-03 0.45420464E+02</pdfrwt>
<pdfrwt beam="1">  1       -2 0.61537319E-01 0.45420464E+02</pdfrwt>
<totfact> 0.24640317E+05</totfact>
</mgrwt>
</event>
<event>
 4    1  0.4696545E-002  0.4818257E+02  0.7818608E-02  0.1455398E+00
         -2   -1    0    0  501    0 -0.00000000000E+00  0.00000000000E+00  0.10568034489E+03  0.10568034492E+03  0.25500000000E-02 0. -1.
          2   -1    0    0    0  501  0.00000000000E+00 -0.00000000000E+00 -0.54919376100E+01  0.54919382021E+01  0.25500000000E-02 0. -1.
          2    1    1    2    0  502 -0.10479491808E+02 -0.19669855299E+02  0.28989292308E+02  0.36566405771E+02  0.25500000000E-02 0.  1.
         -2    1    1    2  502    0  0.10479491808E+02  0.19669855299E+02  0.71199114972E+02  0.74605877351E+02  0.25500000000E-02 0.  1.
<mgrwt>
<rscale>  0 0.48182565E+02</rscale>
<asrwt>0</asrwt>
<pdfrwt beam="2">  1        2 0.84491354E-03 0.48182565E+02</pdfrwt>
<pdfrwt beam="1">  1       -2 0.16258514E-01 0.48182565E+02</pdfrwt>
<totfact> 0.38086242E+05</totfact>
</mgrwt>
</event>
<event>
 4    1  0.4696545E-002  0.6665967E+02  0.7818608E-02  0.1371835E+00
          2   -1    0    0    0  501  0.00000000000E+00  0.00000000000E+00  0.76415055420E+03  0.76415055420E+03  0.25500000000E-02 0. -1.
         -2   -1    0    0  501    0 -0.00000000000E+00 -0.00000000000E+00 -0.14537412102E+01  0.14537434467E+01  0.25500000000E-02 0. -1.
          2    1    1    2    0  502 -0.89442251871E+01 -0.26764835802E+02  0.17765968853E+03  0.17988696600E+03  0.25500000000E-02 0.  1.
         -2    1    1    2  502    0  0.89442251871E+01  0.26764835802E+02  0.58503712446E+03  0.58571733165E+03  0.25500000000E-02 0.  1.
<mgrwt>
<rscale>  0 0.66659673E+02</rscale>
<asrwt>0</asrwt>
<pdfrwt beam="1">  1        2 0.11756185E+00 0.66659673E+02</pdfrwt>
<pdfrwt beam="2">  1       -2 0.22365224E-03 0.66659673E+02</pdfrwt>
<totfact> 0.54451476E+05</totfact>
</mgrwt>
</event>
<event>
 4    1  0.4696545E-002  0.4982676E+02  0.7818608E-02  0.1446278E+00
          2   -1    0    0    0  501  0.00000000000E+00  0.00000000000E+00  0.91502406511E+02  0.91502406547E+02  0.25500000000E-02 0.  1.
         -2   -1    0    0  501    0 -0.00000000000E+00 -0.00000000000E+00 -0.67831703718E+01  0.67831708511E+01  0.25500000000E-02 0.  1.
          2    1    1    2    0  502  0.21785792242E+01  0.24782534760E+02  0.44973665974E+02  0.51396020022E+02  0.25500000000E-02 0. -1.
         -2    1    1    2  502    0 -0.21785792242E+01 -0.24782534760E+02  0.39745570166E+02  0.46889557376E+02  0.25500000000E-02 0. -1.
<mgrwt>
<rscale>  0 0.49826757E+02</rscale>
<asrwt>0</asrwt>
<pdfrwt beam="1">  1        2 0.14077293E-01 0.49826757E+02</pdfrwt>
<pdfrwt beam="2">  1       -2 0.10435647E-02 0.49826757E+02</pdfrwt>
<totfact> 0.59050110E+05</totfact>
</mgrwt>
</event>
<event>
 4    1  0.4696545E-002  0.5884451E+02  0.7818608E-02  0.1402746E+00
          2   -1    0    0    0  501  0.00000000000E+00  0.00000000000E+00  0.47893256482E+01  0.47893263271E+01  0.25500000000E-02 0.  1.
         -2   -1    0    0  501    0 -0.00000000000E+00 -0.00000000000E+00 -0.18074967754E+03  0.18074967755E+03  0.25500000000E-02 0.  1.
          2    1    1    2    0  502  0.25374830337E+02 -0.14866086520E+02 -0.85183763899E+02  0.90117457696E+02  0.25500000000E-02 0.  1.
         -2    1    1    2  502    0 -0.25374830337E+02  0.14866086520E+02 -0.90776587988E+02  0.95421546185E+02  0.25500000000E-02 0.  1.
<mgrwt>
<rscale>  0 0.58844511E+02</rscale>
<asrwt>0</asrwt>
<pdfrwt beam="1">  1        2 0.73681952E-03 0.58844511E+02</pdfrwt>
<pdfrwt beam="2">  1       -2 0.27807638E-01 0.58844511E+02</pdfrwt>
<totfact> 0.19619815E+05</totfact>
</mgrwt>
</event>
<event>
 4    1  0.4696545E-002  0.4743011E+02  0.7818608E-02  0.1459717E+00
         -2   -1    0    0  501    0 -0.00000000000E+00  0.00000000000E+00  0.70592614238E+00  0.70593074802E+00  0.25500000000E-02 0.  1.
          2   -1    0    0    0  501  0.00000000000E+00 -0.00000000000E+00 -0.79668657585E+03  0.79668657586E+03  0.25500000000E-02 0.  1.
          2    1    1    2    0  502  0.60736030262E+01 -0.21946608897E+02 -0.50933242024E+03  0.50984120725E+03  0.25500000000E-02 0. -1.
         -2    1    1    2  502    0 -0.60736030262E+01  0.21946608897E+02 -0.28664822947E+03  0.28755129935E+03  0.25500000000E-02 0. -1.
<mgrwt>
<rscale>  0 0.47430105E+02</rscale>
<asrwt>0</asrwt>
<pdfrwt beam="2">  1        2 0.12256645E+00 0.47430105E+02</pdfrwt>
<pdfrwt beam="1">  1       -2 0.10860501E-03 0.47430105E+02</pdfrwt>
<totfact> 0.12853561E+06</totfact>
</mgrwt>
</event>
<event>
 4    1  0.4696545E-002  0.7721218E+02  0.7818608E-02  0.1337154E+00
          2   -1    0    0    0  501  0.00000000000E+00  0.00000000000E+00  0.35825053870E+02  0.35825053960E+02  0.25500000000E-02 0.  1.
         -2   -1    0    0  501    0 -0.00000000000E+00 -0.00000000000E+00 -0.41603010951E+02  0.41603011029E+02  0.25500000000E-02 0.  1.
          2    1    1    2    0  502 -0.13846998873E+02 -0.24581298020E+02  0.23537132460E+02  0.36742022278E+02  0.25500000000E-02 0. -1.
         -2    1    1    2  502    0  0.13846998873E+02  0.24581298020E+02 -0.29315089541E+02  0.40686042711E+02  0.25500000000E-02 0. -1.
<mgrwt>
<rscale>  0 0.77212178E+02</rscale>
<asrwt>0</asrwt>
<pdfrwt beam="1">  1        2 0.55115468E-02 0.77212178E+02</pdfrwt>
<pdfrwt beam="2">  1       -2 0.64004632E-02 0.77212178E+02</pdfrwt>
<totfact> 0.14932123E+05</totfact>
</mgrwt>
</event>
<event>
 4    1  0.4696545E-002  0.4291580E+02  0.7818608E-02  0.1487789E+00
          2   -1    0    0    0  501  0.00000000000E+00  0.00000000000E+00  0.24062280747E+03  0.24062280748E+03  0.25500000000E-02 0.  1.
         -2   -1    0    0  501    0 -0.00000000000E+00 -0.00000000000E+00 -0.19135394775E+01  0.19135411765E+01  0.25500000000E-02 0.  1.
          2    1    1    2    0  502  0.22669142629E+01  0.20551369320E+02  0.86917219955E+02  0.89342603568E+02  0.25500000000E-02 0.  1.
         -2    1    1    2  502    0 -0.22669142629E+01 -0.20551369320E+02  0.15179204804E+03  0.15319374509E+03  0.25500000000E-02 0.  1.
<mgrwt>
<rscale>  0 0.42915799E+02</rscale>
<asrwt>0</asrwt>
<pdfrwt beam="1">  1        2 0.37018894E-01 0.42915799E+02</pdfrwt>
<pdfrwt beam="2">  1       -2 0.29439082E-03 0.42915799E+02</pdfrwt>
<totfact> 0.11434632E+06</totfact>
</mgrwt>
</event>
<event>
 4    1  0.4696545E-002  0.5416089E+02  0.7818608E-02  0.1424109E+00
         -2   -1    0    0  501    0 -0.00000000000E+00  0.00000000000E+00  0.16723431984E+01  0.16723451426E+01  0.25500000000E-02 0. -1.
          2   -1    0    0    0  501  0.00000000000E+00 -0.00000000000E+00 -0.43851644901E+03  0.43851644901E+03  0.25500000000E-02 0. -1.
          2    1    1    2    0  502 -0.19746303415E+02  0.11337209167E+02 -0.33756629243E+03  0.33833334243E+03  0.25500000000E-02 0.  1.
         -2    1    1    2  502    0  0.19746303415E+02 -0.11337209167E+02 -0.99277813382E+02  0.10185545173E+03  0.25500000000E-02 0.  1.
<mgrwt>
<rscale>  0 0.54160887E+02</rscale>
<asrwt>0</asrwt>
<pdfrwt beam="2">  1        2 0.67463978E-01 0.54160887E+02</pdfrwt>
<pdfrwt beam="1">  1       -2 0.25728407E-03 0.54160887E+02</pdfrwt>
<totfact> 0.78936156E+05</totfact>
</mgrwt>
</event>
<event>
 4    1  0.4696545E-002  0.6046861E+02  0.7818608E-02  0.1395876E+00
          2   -1    0    0    0  501  0.00000000000E+00  0.00000000000E+00  0.27120556197E+02  0.27120556317E+02  0.25500000000E-02 0.  1.
         -2   -1    0    0  501    0 -0.00000000000E+00 -0.00000000000E+00 -0.33705550103E+02  0.33705550199E+02  0.25500000000E-02 0.  1.
          2    1    1    2    0  502  0.10172386628E+02  0.19489145930E+02  0.17586152489E+02  0.28152744532E+02  0.25500000000E-02 0. -1.
         -2    1    1    2  502    0 -0.10172386628E+02 -0.19489145930E+02 -0.24171146395E+02  0.32673361984E+02  0.25500000000E-02 0. -1.
<mgrwt>
<rscale>  0 0.60468612E+02</rscale>
<asrwt>0</asrwt>
<pdfrwt beam="1">  1        2 0.41723933E-02 0.60468612E+02</pdfrwt>
<pdfrwt beam="2">  1       -2 0.51854692E-02 0.60468612E+02</pdfrwt>
<totfact> 0.27773155E+05</totfact>
</mgrwt>
</event>
<event>
 4    1  0.4696545E-002  0.7982191E+02  0.7818608E-02  0.1329558E+00
         -2   -1    0    0  501    0 -0.00000000000E+00  0.00000000000E+00  0.23755395029E+02  0.23755395166E+02  0.25500000000E-02 0. -1.
          2   -1    0    0    0  501  0.00000000000E+00 -0.00000000000E+00 -0.67053581769E+02  0.67053581818E+02  0.25500000000E-02 0. -1.
          2    1    1    2    0  502 -0.17615503919E+02  0.17676948817E+02  0.13784547264E+02  0.28509546604E+02  0.25500000000E-02 0.  1.
         -2    1    1    2  502    0  0.17615503919E+02 -0.17676948817E+02 -0.57082734004E+02  0.62299430380E+02  0.25500000000E-02 0.  1.
<mgrwt>
<rscale>  0 0.79821910E+02</rscale>
<asrwt>0</asrwt>
<pdfrwt beam="2">  1        2 0.10315936E-01 0.79821910E+02</pdfrwt>
<pdfrwt beam="1">  1       -2 0.36546762E-02 0.79821910E+02</pdfrwt>
<totfact> 0.15803094E+05</totfact>
</mgrwt>
</event>
<event>
 4    1  0.4696545E-002  0.4899161E+02  0.7818608E-02  0.1450858E+00
         -2   -1    0    0  501    0 -0.00000000000E+00  0.00000000000E+00  0.12139459816E+02  0.12139460084E+02  0.25500000000E-02 0. -1.
          2   -1    0    0    0  501  0.00000000000E+00 -0.00000000000E+00 -0.49429246354E+02  0.49429246420E+02  0.25500000000E-02 0. -1.
          2    1    1    2    0  502 -0.11174716051E+02  0.20505668993E+02 -0.27938469003E+02  0.36413112974E+02  0.25500000000E-02 0. -1.
         -2    1    1    2  502    0  0.11174716051E+02 -0.20505668993E+02 -0.93513175353E+01  0.25155593530E+02  0.25500000000E-02 0. -1.
<mgrwt>
<rscale>  0 0.48991606E+02</rscale>
<asrwt>0</asrwt>
<pdfrwt beam="2">  1        2 0.76044993E-02 0.48991606E+02</pdfrwt>
<pdfrwt beam="1">  1       -2 0.18676093E-02 0.48991606E+02</pdfrwt>
<totfact> 0.53937601E+05</totfact>
</mgrwt>
</event>
<event>
 4    1  0.4696545E-002  0.7513246E+02  0.7818608E-02  0.1343461E+00
          2   -1    0    0    0  501  0.00000000000E+00  0.00000000000E+00  0.53876059947E+03  0.53876059948E+03  0.25500000000E-02 0. -1.
         -2   -1    0    0  501    0 -0.00000000000E+00 -0.00000000000E+00 -0.26193850127E+01  0.26193862539E+01  0.25500000000E-02 0. -1.
          2    1    1    2    0  502 -0.29662725032E+02 -0.21751572409E+02  0.21309287269E+03  0.21624426132E+03  0.25500000000E-02 0. -1.
         -2    1    1    2  502    0  0.29662725032E+02  0.21751572409E+02  0.32304834177E+03  0.32513572441E+03  0.25500000000E-02 0. -1.
<mgrwt>
<rscale>  0 0.75132464E+02</rscale>
<asrwt>0</asrwt>
<pdfrwt beam="1">  1        2 0.82886293E-01 0.75132464E+02</pdfrwt>
<pdfrwt beam="2">  1       -2 0.40298218E-03 0.75132464E+02</pdfrwt>
<totfact> 0.36623787E+05</totfact>
</mgrwt>
</event>
<event>
 4    1  0.4696545E-002  0.4430314E+02  0.7818608E-02  0.1478739E+00
         -2   -1    0    0  501    0 -0.00000000000E+00  0.00000000000E+00  0.80676456335E+02  0.80676456375E+02  0.25500000000E-02 0.  1.
          2   -1    0    0    0  501  0.00000000000E+00 -0.00000000000E+00 -0.60822197185E+01  0.60822202531E+01  0.25500000000E-02 0.  1.
          2    1    1    2    0  502  0.36790615295E+01 -0.20644065944E+02  0.23314963480E+02  0.31357622375E+02  0.25500000000E-02 0.  1.
         -2    1    1    2  502    0 -0.36790615295E+01  0.20644065944E+02  0.51279273136E+02  0.55401054253E+02  0.25500000000E-02 0.  1.
<mgrwt>
<rscale>  0 0.44303136E+02</rscale>
<asrwt>0</asrwt>
<pdfrwt beam="2">  1        2 0.93572624E-03 0.44303136E+02</pdfrwt>
<pdfrwt beam="1">  1       -2 0.12411761E-01 0.44303136E+02</pdfrwt>
<totfact> 0.49764047E+05</totfact>
</mgrwt>
</event>
<event>
 4    1  0.4696545E-002  0.4205508E+02  0.7818608E-02  0.1493611E+00
          2   -1    0    0    0  501  0.00000000000E+00  0.00000000000E+00  0.12542282979E+03  0.12542282982E+03  0.25500000000E-02 0. -1.
         -2   -1    0    0  501    0 -0.00000000000E+00 -0.00000000000E+00 -0.35253334652E+01  0.35253343875E+01  0.25500000000E-02 0. -1.
          2    1    1    2    0  502  0.90912508187E+01 -0.17964401587E+02  0.79545738831E+02  0.82054220723E+02  0.25500000000E-02 0. -1.
         -2    1    1    2  502    0 -0.90912508187E+01  0.17964401587E+02  0.42351757493E+02  0.46893943480E+02  0.25500000000E-02 0. -1.
<mgrwt>
<rscale>  0 0.42055076E+02</rscale>
<asrwt>0</asrwt>
<pdfrwt beam="1">  1        2 0.19295819E-01 0.42055076E+02</pdfrwt>
<pdfrwt beam="2">  1       -2 0.54235910E-03 0.42055076E+02</pdfrwt>
<totfact> 0.98071610E+05</totfact>
</mgrwt>
</event>
<event>
 4    1  0.4696545E-002  0.4981285E+02  0.7818608E-02  0.1446354E+00
         -2   -1    0    0  501    0 -0.00000000000E+00  0.00000000000E+00  0.11666747458E+01  0.11666775325E+01  0.25500000000E-02 0.  1.
          2   -1    0    0    0  501  0.00000000000E+00 -0.00000000000E+00 -0.53170716605E+03  0.53170716605E+03  0.25500000000E-02 0.  1.
          2    1    1    2    0  502  0.76554951069E+00 -0.24872314231E+02 -0.25398966865E+03  0.25520574027E+03  0.25500000000E-02 0.  1.
         -2    1    1    2  502    0 -0.76554951069E+00  0.24872314231E+02 -0.27655082265E+03  0.27766810331E+03  0.25500000000E-02 0.  1.
<mgrwt>
<rscale>  0 0.49812852E+02</rscale>
<asrwt>0</asrwt>
<pdfrwt beam="2">  1        2 0.81800909E-01 0.49812852E+02</pdfrwt>
<pdfrwt beam="1">  1       -2 0.17948906E-03 0.49812852E+02</pdfrwt>
<totfact> 0.10328204E+06</totfact>
</mgrwt>
</event>
<event>
 4    1  0.4696545E-002  0.5554699E+02  0.7818608E-02  0.1417530E+00
         -2   -1    0    0  501    0 -0.00000000000E+00  0.00000000000E+00  0.20708177767E+02  0.20708177924E+02  0.25500000000E-02 0.  1.
          2   -1    0    0    0  501  0.00000000000E+00 -0.00000000000E+00 -0.37249390577E+02  0.37249390665E+02  0.25500000000E-02 0.  1.
          2    1    1    2    0  502  0.79258183271E+01 -0.24075463943E+02  0.35764518825E+01  0.25597608771E+02  0.25500000000E-02 0. -1.
         -2    1    1    2  502    0 -0.79258183271E+01  0.24075463943E+02 -0.20117664693E+02  0.32359959818E+02  0.25500000000E-02 0. -1.
<mgrwt>
<rscale>  0 0.55546989E+02</rscale>
<asrwt>0</asrwt>
<pdfrwt beam="2">  1        2 0.57306755E-02 0.55546989E+02</pdfrwt>
<pdfrwt beam="1">  1       -2 0.31858735E-02 0.55546989E+02</pdfrwt>
<totfact> 0.36932595E+05</totfact>
</mgrwt>
</event>
<event>
 4    1  0.4696545E-002  0.6460040E+02  0.7818608E-02  0.1379481E+00
          2   -1    0    0    0  501  0.00000000000E+00  0.00000000000E+00  0.11348742228E+03  0.11348742231E+03  0.25500000000E-02 0.  1.
         -2   -1    0    0  501    0 -0.00000000000E+00 -0.00000000000E+00 -0.91931150490E+01  0.91931154027E+01  0.25500000000E-02 0.  1.
          2    1    1    2    0  502  0.27427049963E+02 -0.23961205704E+01  0.20069291958E+02  0.34069942026E+02  0.25500000000E-02 0. -1.
         -2    1    1    2  502    0 -0.27427049963E+02  0.23961205704E+01  0.84225015271E+02  0.88610595684E+02  0.25500000000E-02 0. -1.
<mgrwt>
<rscale>  0 0.64600401E+02</rscale>
<asrwt>0</asrwt>
<pdfrwt beam="1">  1        2 0.17459604E-01 0.64600401E+02</pdfrwt>
<pdfrwt beam="2">  1       -2 0.14143254E-02 0.64600401E+02</pdfrwt>
<totfact> 0.32064517E+05</totfact>
</mgrwt>
</event>
<event>
 4    1  0.4696545E-002  0.8488038E+02  0.7818608E-02  0.1315746E+00
         -2   -1    0    0  501    0 -0.00000000000E+00  0.00000000000E+00  0.64017398625E+01  0.64017403703E+01  0.25500000000E-02 0.  1.
          2   -1    0    0    0  501  0.00000000000E+00 -0.00000000000E+00 -0.28135629706E+03  0.28135629707E+03  0.25500000000E-02 0.  1.
          2    1    1    2    0  502  0.87401047017E+01  0.29911621358E+02 -0.39803297266E+02  0.50550934731E+02  0.25500000000E-02 0. -1.
         -2    1    1    2  502    0 -0.87401047017E+01 -0.29911621358E+02 -0.23515125993E+03  0.23720710271E+03  0.25500000000E-02 0. -1.
<mgrwt>
<rscale>  0 0.84880384E+02</rscale>
<asrwt>0</asrwt>
<pdfrwt beam="2">  1        2 0.43285575E-01 0.84880384E+02</pdfrwt>
<pdfrwt beam="1">  1       -2 0.98488331E-03 0.84880384E+02</pdfrwt>
<totfact> 0.21218420E+05</totfact>
</mgrwt>
</event>
<event>
 4    1  0.4696545E-002  0.6251080E+02  0.7818608E-02  0.1387587E+00
          2   -1    0    0    0  501  0.00000000000E+00  0.00000000000E+00  0.75679024973E+03  0.75679024974E+03  0.25500000000E-02 0. -1.
         -2   -1    0    0  501    0 -0.00000000000E+00 -0.00000000000E+00 -0.12908450969E+01  0.12908476156E+01  0.25500000000E-02 0. -1.
          2    1    1    2    0  502 -0.40525308177E+01 -0.21375262656E+02  0.64988992953E+03  0.65025398527E+03  0.25500000000E-02 0.  1.
         -2    1    1    2  502    0  0.40525308177E+01  0.21375262656E+02  0.10560947511E+03  0.10782711208E+03  0.25500000000E-02 0.  1.
<mgrwt>
<rscale>  0 0.62510797E+02</rscale>
<asrwt>0</asrwt>
<pdfrwt beam="1">  1        2 0.11642921E+00 0.62510797E+02</pdfrwt>
<pdfrwt beam="2">  1       -2 0.19859184E-03 0.62510797E+02</pdfrwt>
<totfact> 0.63991281E+05</totfact>
</mgrwt>
</event>
<event>
 4    1  0.4696545E-002  0.4376855E+02  0.7818608E-02  0.1482179E+00
         -2   -1    0    0  501    0 -0.00000000000E+00  0.00000000000E+00  0.16378212071E+03  0.16378212073E+03  0.25500000000E-02 0.  1.
          2   -1    0    0    0  501  0.00000000000E+00 -0.00000000000E+00 -0.29241378526E+01  0.29241389644E+01  0.25500000000E-02 0.  1.
          2    1    1    2    0  502 -0.12672144928E+02  0.15796636119E+02  0.48835436704E+02  0.52867918952E+02  0.25500000000E-02 0.  1.
         -2    1    1    2  502    0  0.12672144928E+02 -0.15796636119E+02  0.11202254616E+03  0.11383834075E+03  0.25500000000E-02 0.  1.
<mgrwt>
<rscale>  0 0.43768555E+02</rscale>
<asrwt>0</asrwt>
<pdfrwt beam="2">  1        2 0.44986749E-03 0.43768555E+02</pdfrwt>
<pdfrwt beam="1">  1       -2 0.25197247E-01 0.43768555E+02</pdfrwt>
<totfact> 0.42110439E+05</totfact>
</mgrwt>
</event>
<event>
 4    1  0.4696545E-002  0.4886261E+02  0.7818608E-02  0.1451575E+00
         -2   -1    0    0  501    0 -0.00000000000E+00  0.00000000000E+00  0.11209938627E+03  0.11209938630E+03  0.25500000000E-02 0.  1.
          2   -1    0    0    0  501  0.00000000000E+00 -0.00000000000E+00 -0.53246375075E+01  0.53246381181E+01  0.25500000000E-02 0.  1.
          2    1    1    2    0  502  0.16969303281E+02  0.12038429415E+02  0.84163382322E+02  0.86696920170E+02  0.25500000000E-02 0.  1.
         -2    1    1    2  502    0 -0.16969303281E+02 -0.12038429415E+02  0.22611366441E+02  0.30727104248E+02  0.25500000000E-02 0.  1.
<mgrwt>
<rscale>  0 0.48862609E+02</rscale>
<asrwt>0</asrwt>
<pdfrwt beam="2">  1        2 0.81917501E-03 0.48862609E+02</pdfrwt>
<pdfrwt beam="1">  1       -2 0.17246060E-01 0.48862609E+02</pdfrwt>
<totfact> 0.36235147E+05</totfact>
</mgrwt>
</event>
<event>
 4    1  0.4696545E-002  0.7239675E+02  0.7818608E-02  0.1352127E+00
          2   -1    0    0    0  501  0.00000000000E+00  0.00000000000E+00  0.23346679783E+04  0.23346679783E+04  0.25500000000E-02 0. -1.
         -2   -1    0    0  501    0 -0.00000000000E+00 -0.00000000000E+00 -0.56124279946E+00  0.56124859238E+00  0.25500000000E-02 0. -1.
          2    1    1    2    0  502  0.15759524943E+02  0.25920563394E+02  0.18041269266E+04  0.18043819456E+04  0.25500000000E-02 0. -1.
         -2    1    1    2  502    0 -0.15759524943E+02 -0.25920563394E+02  0.52997980891E+03  0.53084728133E+03  0.25500000000E-02 0. -1.
<mgrwt>
<rscale>  0 0.72396750E+02</rscale>
<asrwt>0</asrwt>
<pdfrwt beam="1">  1        2 0.35918228E+00 0.72396750E+02</pdfrwt>
<pdfrwt beam="2">  1       -2 0.86344868E-04 0.72396750E+02</pdfrwt>
<totfact> 0.30168042E+05</totfact>
</mgrwt>
</event>
<event>
 4    1  0.4696545E-002  0.6807697E+02  0.7818608E-02  0.1366757E+00
         -2   -1    0    0  501    0 -0.00000000000E+00  0.00000000000E+00  0.75005559840E+02  0.75005559884E+02  0.25500000000E-02 0. -1.
          2   -1    0    0    0  501  0.00000000000E+00 -0.00000000000E+00 -0.15447101660E+02  0.15447101871E+02  0.25500000000E-02 0. -1.
          2    1    1    2    0  502  0.29341910677E+02  0.64049726878E+01  0.84934614712E+01  0.31210740004E+02  0.25500000000E-02 0. -1.
         -2    1    1    2  502    0 -0.29341910677E+02 -0.64049726878E+01  0.51064996709E+02  0.59241921751E+02  0.25500000000E-02 0. -1.
<mgrwt>
<rscale>  0 0.68076972E+02</rscale>
<asrwt>0</asrwt>
<pdfrwt beam="2">  1        2 0.23764771E-02 0.68076972E+02</pdfrwt>
<pdfrwt beam="1">  1       -2 0.11539317E-01 0.68076972E+02</pdfrwt>
<totfact> 0.17740716E+05</totfact>
</mgrwt>
</event>
<event>
 4    1  0.4696545E-002  0.5153410E+02  0.7818608E-02  0.1437238E+00
         -2   -1    0    0  501    0 -0.00000000000E+00  0.00000000000E+00  0.52327165400E+01  0.52327171613E+01  0.25500000000E-02 0. -1.
          2   -1    0    0    0  501  0.00000000000E+00 -0.00000000000E+00 -0.12688261449E+03  0.12688261452E+03  0.25500000000E-02 0. -1.
          2    1    1    2    0  502 -0.12554667245E+02  0.22127352773E+02 -0.50348002096E+02  0.56410643782E+02  0.25500000000E-02 0.  1.
         -2    1    1    2  502    0  0.12554667245E+02 -0.22127352773E+02 -0.71301895859E+02  0.75704687899E+02  0.25500000000E-02 0.  1.
<mgrwt>
<rscale>  0 0.51534097E+02</rscale>
<asrwt>0</asrwt>
<pdfrwt beam="2">  1        2 0.19520400E-01 0.51534097E+02</pdfrwt>
<pdfrwt beam="1">  1       -2 0.80503346E-03 0.51534097E+02</pdfrwt>
<totfact> 0.59210152E+05</totfact>
</mgrwt>
</event>
<event>
 4    1  0.4696545E-002  0.5330158E+02  0.7818608E-02  0.1428306E+00
          2   -1    0    0    0  501  0.00000000000E+00  0.00000000000E+00  0.59949436929E+03  0.59949436930E+03  0.25500000000E-02 0. -1.
         -2   -1    0    0  501    0 -0.00000000000E+00 -0.00000000000E+00 -0.11847714575E+01  0.11847742017E+01  0.25500000000E-02 0. -1.
          2    1    1    2    0  502  0.13505475614E+02  0.15640167927E+02  0.48882053662E+03  0.48925712029E+03  0.25500000000E-02 0.  1.
         -2    1    1    2  502    0 -0.13505475614E+02 -0.15640167927E+02  0.10948906121E+03  0.11142202321E+03  0.25500000000E-02 0.  1.
<mgrwt>
<rscale>  0 0.53301581E+02</rscale>
<asrwt>0</asrwt>
<pdfrwt beam="1">  1        2 0.92229950E-01 0.53301581E+02</pdfrwt>
<pdfrwt beam="2">  1       -2 0.18227265E-03 0.53301581E+02</pdfrwt>
<totfact> 0.90359742E+05</totfact>
</mgrwt>
</event>
<event>
 4    1  0.4696545E-002  0.4606403E+02  0.7818608E-02  0.1467806E+00
          2   -1    0    0    0  501  0.00000000000E+00  0.00000000000E+00  0.21362042108E+04  0.21362042108E+04  0.25500000000E-02 0. -1.
         -2   -1    0    0  501    0 -0.00000000000E+00 -0.00000000000E+00 -0.24831885929E+00  0.24833195199E+00  0.25500000000E-02 0. -1.
          2    1    1    2    0  502 -0.22784244255E+02  0.29305439459E+01  0.99087118812E+03  0.99113743816E+03  0.25500000000E-02 0.  1.
         -2    1    1    2  502    0  0.22784244255E+02 -0.29305439459E+01  0.11450847038E+04  0.11453151046E+04  0.25500000000E-02 0.  1.
<mgrwt>
<rscale>  0 0.46064033E+02</rscale>
<asrwt>0</asrwt>
<pdfrwt beam="1">  1        2 0.32864478E+00 0.46064033E+02</pdfrwt>
<pdfrwt beam="2">  1       -2 0.38204144E-04 0.46064033E+02</pdfrwt>
<totfact> 0.10582906E+06</totfact>
</mgrwt>
</event>
<event>
 4    1  0.4696545E-002  0.7753017E+02  0.7818608E-02  0.1336210E+00
         -2   -1    0    0  501    0 -0.00000000000E+00  0.00000000000E+00  0.23702138872E+02  0.23702139009E+02  0.25500000000E-02 0. -1.
          2   -1    0    0    0  501  0.00000000000E+00 -0.00000000000E+00 -0.63400678716E+02  0.63400678767E+02  0.25500000000E-02 0. -1.
          2    1    1    2    0  502 -0.63030399006E+01  0.26557000638E+02 -0.50774893666E+02  0.57646269855E+02  0.25500000000E-02 0.  1.
         -2    1    1    2  502    0  0.63030399006E+01 -0.26557000638E+02  0.11076353823E+02  0.29456547921E+02  0.25500000000E-02 0.  1.
<mgrwt>
<rscale>  0 0.77530167E+02</rscale>
<asrwt>0</asrwt>
<pdfrwt beam="2">  1        2 0.97539505E-02 0.77530167E+02</pdfrwt>
<pdfrwt beam="1">  1       -2 0.36464830E-02 0.77530167E+02</pdfrwt>
<totfact> 0.16875028E+05</totfact>
</mgrwt>
</event>
<event>
 4    1  0.4696545E-002  0.5433821E+02  0.7818608E-02  0.1423255E+00
          2   -1    0    0    0  501  0.00000000000E+00  0.00000000000E+00  0.35080197093E+02  0.35080197186E+02  0.25500000000E-02 0.  1.
         -2   -1    0    0  501    0 -0.00000000000E+00 -0.00000000000E+00 -0.21042082092E+02  0.21042082247E+02  0.25500000000E-02 0.  1.
          2    1    1    2    0  502  0.52609019609E+01 -0.23445117035E+02  0.20116490107E+02  0.31337258702E+02  0.25500000000E-02 0.  1.
         -2    1    1    2  502    0 -0.52609019609E+01  0.23445117035E+02 -0.60783751060E+01  0.24785020731E+02  0.25500000000E-02 0.  1.
<mgrwt>
<rscale>  0 0.54338215E+02</rscale>
<asrwt>0</asrwt>
<pdfrwt beam="1">  1        2 0.53969534E-02 0.54338215E+02</pdfrwt>
<pdfrwt beam="2">  1       -2 0.32372434E-02 0.54338215E+02</pdfrwt>
<totfact> 0.38727432E+05</totfact>
</mgrwt>
</event>
<event>
 4    1  0.4696545E-002  0.4730217E+02  0.7818608E-02  0.1460461E+00
          2   -1    0    0    0  501  0.00000000000E+00  0.00000000000E+00  0.10682396386E+03  0.10682396390E+03  0.25500000000E-02 0.  1.
         -2   -1    0    0  501    0 -0.00000000000E+00 -0.00000000000E+00 -0.52364077166E+01  0.52364083375E+01  0.25500000000E-02 0.  1.
          2    1    1    2    0  502 -0.12510466273E+02  0.17335357522E+02  0.26827006368E+02  0.34303274828E+02  0.25500000000E-02 0.  1.
         -2    1    1    2  502    0  0.12510466273E+02 -0.17335357522E+02  0.74760549780E+02  0.77757097404E+02  0.25500000000E-02 0.  1.
<mgrwt>
<rscale>  0 0.47302172E+02</rscale>
<asrwt>0</asrwt>
<pdfrwt beam="1">  1        2 0.16434456E-01 0.47302172E+02</pdfrwt>
<pdfrwt beam="2">  1       -2 0.80560125E-03 0.47302172E+02</pdfrwt>
<totfact> 0.70064099E+05</totfact>
</mgrwt>
</event>
<event>
 4    1  0.4696545E-002  0.6394875E+02  0.7818608E-02  0.1381970E+00
          2   -1    0    0    0  501  0.00000000000E+00  0.00000000000E+00  0.24817052193E+03  0.24817052194E+03  0.25500000000E-02 0. -1.
         -2   -1    0    0  501    0 -0.00000000000E+00 -0.00000000000E+00 -0.41195892984E+01  0.41195900876E+01  0.25500000000E-02 0. -1.
          2    1    1    2    0  502  0.32259372716E+01 -0.26564153243E+02  0.19107194266E+03  0.19293664293E+03  0.25500000000E-02 0.  1.
         -2    1    1    2  502    0 -0.32259372716E+01  0.26564153243E+02  0.52978989977E+02  0.59353469101E+02  0.25500000000E-02 0.  1.
<mgrwt>
<rscale>  0 0.63948752E+02</rscale>
<asrwt>0</asrwt>
<pdfrwt beam="1">  1        2 0.38180095E-01 0.63948752E+02</pdfrwt>
<pdfrwt beam="2">  1       -2 0.63378278E-03 0.63948752E+02</pdfrwt>
<totfact> 0.42461236E+05</totfact>
</mgrwt>
</event>
<event>
 4    1  0.4696545E-002  0.4381190E+02  0.7818608E-02  0.1481898E+00
          2   -1    0    0    0  501  0.00000000000E+00  0.00000000000E+00  0.36191928212E+03  0.36191928213E+03  0.25500000000E-02 0. -1.
         -2   -1    0    0  501    0 -0.00000000000E+00 -0.00000000000E+00 -0.13259036664E+01  0.13259061185E+01  0.25500000000E-02 0. -1.
          2    1    1    2    0  502 -0.21633760452E+02  0.25117460310E+01  0.16077828156E+03  0.16224667728E+03  0.25500000000E-02 0.  1.
         -2    1    1    2  502    0  0.21633760452E+02 -0.25117460310E+01  0.19981509689E+03  0.20099851097E+03  0.25500000000E-02 0.  1.
<mgrwt>
<rscale>  0 0.43811896E+02</rscale>
<asrwt>0</asrwt>
<pdfrwt beam="1">  1        2 0.55679913E-01 0.43811896E+02</pdfrwt>
<pdfrwt beam="2">  1       -2 0.20398528E-03 0.43811896E+02</pdfrwt>
<totfact> 0.12500419E+06</totfact>
</mgrwt>
</event>
<event>
 4    1  0.4696545E-002  0.5716069E+02  0.7818608E-02  0.1410149E+00
          2   -1    0    0    0  501  0.00000000000E+00  0.00000000000E+00  0.89659406053E+03  0.89659406053E+03  0.25500000000E-02 0. -1.
         -2   -1    0    0  501    0 -0.00000000000E+00 -0.00000000000E+00 -0.91104150830E+00  0.91104507701E+00  0.25500000000E-02 0. -1.
          2    1    1    2    0  502  0.13538157104E+02 -0.24929131074E+02  0.50244264020E+03  0.50324283400E+03  0.25500000000E-02 0. -1.
         -2    1    1    2  502    0 -0.13538157104E+02  0.24929131074E+02  0.39324037881E+03  0.39426227160E+03  0.25500000000E-02 0. -1.
<mgrwt>
<rscale>  0 0.57160686E+02</rscale>
<asrwt>0</asrwt>
<pdfrwt beam="1">  1        2 0.13793853E+00 0.57160686E+02</pdfrwt>
<pdfrwt beam="2">  1       -2 0.14015951E-03 0.57160686E+02</pdfrwt>
<totfact> 0.82305916E+05</totfact>
</mgrwt>
</event>
<event>
 4    1  0.4696545E-002  0.7385552E+02  0.7818608E-02  0.1347452E+00
         -2   -1    0    0  501    0 -0.00000000000E+00  0.00000000000E+00  0.10958690764E+01  0.10958720432E+01  0.25500000000E-02 0. -1.
          2   -1    0    0    0  501  0.00000000000E+00 -0.00000000000E+00 -0.12443616435E+04  0.12443616436E+04  0.25500000000E-02 0. -1.
          2    1    1    2    0  502  0.15805622185E+02  0.26831640135E+02 -0.95632197705E+03  0.95682886578E+03  0.25500000000E-02 0. -1.
         -2    1    1    2  502    0 -0.15805622185E+02 -0.26831640135E+02 -0.28694379743E+03  0.28862864981E+03  0.25500000000E-02 0. -1.
<mgrwt>
<rscale>  0 0.73855516E+02</rscale>
<asrwt>0</asrwt>
<pdfrwt beam="2">  1        2 0.19143912E+00 0.73855516E+02</pdfrwt>
<pdfrwt beam="1">  1       -2 0.16859647E-03 0.73855516E+02</pdfrwt>
<totfact> 0.42856035E+05</totfact>
</mgrwt>
</event>
<event>
 4    1  0.4696545E-002  0.6846727E+02  0.7818608E-02  0.1365384E+00
         -2   -1    0    0  501    0 -0.00000000000E+00  0.00000000000E+00  0.21138718081E+02  0.21138718235E+02  0.25500000000E-02 0.  1.
          2   -1    0    0    0  501  0.00000000000E+00 -0.00000000000E+00 -0.55440523773E+02  0.55440523831E+02  0.25500000000E-02 0.  1.
          2    1    1    2    0  502 -0.31158670496E+01  0.23795486967E+02  0.10154843019E+02  0.26058677455E+02  0.25500000000E-02 0.  1.
         -2    1    1    2  502    0  0.31158670496E+01 -0.23795486967E+02 -0.44456648711E+02  0.50520564611E+02  0.25500000000E-02 0.  1.
<mgrwt>
<rscale>  0 0.68467265E+02</rscale>
<asrwt>0</asrwt>
<pdfrwt beam="2">  1        2 0.85293113E-02 0.68467265E+02</pdfrwt>
<pdfrwt beam="1">  1       -2 0.32521105E-02 0.68467265E+02</pdfrwt>
<totfact> 0.22904897E+05</totfact>
</mgrwt>
</event>
<event>
 4    1  0.4696545E-002  0.6043275E+02  0.7818608E-02  0.1396025E+00
          2   -1    0    0    0  501  0.00000000000E+00  0.00000000000E+00  0.10800214867E+01  0.10800244971E+01  0.25500000000E-02 0.  1.
         -2   -1    0    0  501    0 -0.00000000000E+00 -0.00000000000E+00 -0.84537950212E+03  0.84537950213E+03  0.25500000000E-02 0.  1.
          2    1    1    2    0  502  0.17920519349E+02 -0.17882696173E+02 -0.65319278287E+03  0.65368321643E+03  0.25500000000E-02 0. -1.
         -2    1    1    2  502    0 -0.17920519349E+02  0.17882696173E+02 -0.19110669777E+03  0.19277631020E+03  0.25500000000E-02 0. -1.
<mgrwt>
<rscale>  0 0.60432749E+02</rscale>
<asrwt>0</asrwt>
<pdfrwt beam="1">  1        2 0.16615806E-03 0.60432749E+02</pdfrwt>
<pdfrwt beam="2">  1       -2 0.13005786E+00 0.60432749E+02</pdfrwt>
<totfact> 0.64313215E+04</totfact>
</mgrwt>
</event>
<event>
 4    1  0.4696545E-002  0.5755362E+02  0.7818608E-02  0.1408395E+00
         -2   -1    0    0  501    0 -0.00000000000E+00  0.00000000000E+00  0.77737625059E+00  0.77738043291E+00  0.25500000000E-02 0. -1.
          2   -1    0    0    0  501  0.00000000000E+00 -0.00000000000E+00 -0.10652532386E+04  0.10652532386E+04  0.25500000000E-02 0. -1.
          2    1    1    2    0  502 -0.25036281471E+01  0.22217042338E+02 -0.86781522325E+03  0.86810317752E+03  0.25500000000E-02 0.  1.
         -2    1    1    2  502    0  0.25036281471E+01 -0.22217042338E+02 -0.19666063907E+03  0.19792744148E+03  0.25500000000E-02 0.  1.
<mgrwt>
<rscale>  0 0.57553620E+02</rscale>
<asrwt>0</asrwt>
<pdfrwt beam="2">  1        2 0.16388395E+00 0.57553620E+02</pdfrwt>
<pdfrwt beam="1">  1       -2 0.11959752E-03 0.57553620E+02</pdfrwt>
<totfact> 0.81695580E+05</totfact>
</mgrwt>
</event>
<event>
 4    1  0.4696545E-002  0.4560167E+02  0.7818608E-02  0.1470620E+00
          2   -1    0    0    0  501  0.00000000000E+00  0.00000000000E+00  0.22201998292E+03  0.22201998293E+03  0.25500000000E-02 0.  1.
         -2   -1    0    0  501    0 -0.00000000000E+00 -0.00000000000E+00 -0.23415815300E+01  0.23415829185E+01  0.25500000000E-02 0.  1.
          2    1    1    2    0  502  0.14786520698E+02 -0.15010244060E+02  0.15271110464E+03  0.15415780911E+03  0.25500000000E-02 0.  1.
         -2    1    1    2  502    0 -0.14786520698E+02  0.15010244060E+02  0.66967296748E+02  0.70203756746E+02  0.25500000000E-02 0.  1.
<mgrwt>
<rscale>  0 0.45601669E+02</rscale>
<asrwt>0</asrwt>
<pdfrwt beam="1">  1        2 0.34156925E-01 0.45601669E+02</pdfrwt>
<pdfrwt beam="2">  1       -2 0.36024338E-03 0.45601669E+02</pdfrwt>
<totfact> 0.95848812E+05</totfact>
</mgrwt>
</event>
<event>
 4    1  0.4696545E-002  0.4256122E+02  0.7818608E-02  0.1490167E+00
          2   -1    0    0    0  501  0.00000000000E+00  0.00000000000E+00  0.33414653991E+03  0.33414653992E+03  0.25500000000E-02 0. -1.
         -2   -1    0    0  501    0 -0.00000000000E+00 -0.00000000000E+00 -0.13552853537E+01  0.13552877526E+01  0.25500000000E-02 0. -1.
          2    1    1    2    0  502 -0.15720998424E+02 -0.13325323479E+02  0.12457195714E+03  0.12626514384E+03  0.25500000000E-02 0.  1.
         -2    1    1    2  502    0  0.15720998424E+02  0.13325323479E+02  0.20821929742E+03  0.20923668383E+03  0.25500000000E-02 0.  1.
<mgrwt>
<rscale>  0 0.42561218E+02</rscale>
<asrwt>0</asrwt>
<pdfrwt beam="1">  1        2 0.51407216E-01 0.42561218E+02</pdfrwt>
<pdfrwt beam="2">  1       -2 0.20850540E-03 0.42561218E+02</pdfrwt>
<totfact> 0.13055956E+06</totfact>
</mgrwt>
</event>
<event>
 4    1  0.4696545E-002  0.8868189E+02  0.7818608E-02  0.1306075E+00
          2   -1    0    0    0  501  0.00000000000E+00  0.00000000000E+00  0.88705479332E+03  0.88705479332E+03  0.25500000000E-02 0.  1.
         -2   -1    0    0  501    0 -0.00000000000E+00 -0.00000000000E+00 -0.22164567396E+01  0.22164582064E+01  0.25500000000E-02 0.  1.
          2    1    1    2    0  502  0.31596633310E+02  0.26820808440E+02  0.28437105836E+03  0.28737536749E+03  0.25500000000E-02 0. -1.
         -2    1    1    2  502    0 -0.31596633310E+02 -0.26820808440E+02  0.60046727822E+03  0.60189588404E+03  0.25500000000E-02 0. -1.
<mgrwt>
<rscale>  0 0.88681886E+02</rscale>
<asrwt>0</asrwt>
<pdfrwt beam="1">  1        2 0.13646990E+00 0.88681886E+02</pdfrwt>
<pdfrwt beam="2">  1       -2 0.34099362E-03 0.88681886E+02</pdfrwt>
<totfact> 0.26626087E+05</totfact>
</mgrwt>
</event>
<event>
 4    1  0.4696545E-002  0.4278294E+02  0.7818608E-02  0.1488677E+00
          2   -1    0    0    0  501  0.00000000000E+00  0.00000000000E+00  0.75796715447E+01  0.75796719736E+01  0.25500000000E-02 0.  1.
         -2   -1    0    0  501    0 -0.00000000000E+00 -0.00000000000E+00 -0.60371350754E+02  0.60371350808E+02  0.25500000000E-02 0.  1.
          2    1    1    2    0  502 -0.17944041794E+02 -0.98906032177E+01 -0.36158537413E+02  0.41560227408E+02  0.25500000000E-02 0.  1.
         -2    1    1    2  502    0  0.17944041794E+02  0.98906032177E+01 -0.16633141797E+02  0.26390795373E+02  0.25500000000E-02 0.  1.
<mgrwt>
<rscale>  0 0.42782942E+02</rscale>
<asrwt>0</asrwt>
<pdfrwt beam="1">  1        2 0.11661034E-02 0.42782942E+02</pdfrwt>
<pdfrwt beam="2">  1       -2 0.92878998E-02 0.42782942E+02</pdfrwt>
<totfact> 0.57300338E+05</totfact>
</mgrwt>
</event>
<event>
 4    1  0.4696545E-002  0.7218093E+02  0.7818608E-02  0.1352830E+00
          2   -1    0    0    0  501  0.00000000000E+00  0.00000000000E+00  0.10916138736E+04  0.10916138736E+04  0.25500000000E-02 0. -1.
         -2   -1    0    0  501    0 -0.00000000000E+00 -0.00000000000E+00 -0.11932058171E+01  0.11932085419E+01  0.25500000000E-02 0. -1.
          2    1    1    2    0  502  0.24910395628E+02  0.17035246735E+02  0.84488496511E+03  0.84542375866E+03  0.25500000000E-02 0. -1.
         -2    1    1    2  502    0 -0.24910395628E+02 -0.17035246735E+02  0.24553570263E+03  0.24738332344E+03  0.25500000000E-02 0. -1.
<mgrwt>
<rscale>  0 0.72180926E+02</rscale>
<asrwt>0</asrwt>
<pdfrwt beam="1">  1        2 0.16794033E+00 0.72180926E+02</pdfrwt>
<pdfrwt beam="2">  1       -2 0.18357062E-03 0.72180926E+02</pdfrwt>
<totfact> 0.45955685E+05</totfact>
</mgrwt>
</event>
<event>
 4    1  0.4696545E-002  0.4297127E+02  0.7818608E-02  0.1487419E+00
          2   -1    0    0    0  501  0.00000000000E+00  0.00000000000E+00  0.40483889944E+02  0.40483890024E+02  0.25500000000E-02 0.  1.
         -2   -1    0    0  501    0 -0.00000000000E+00 -0.00000000000E+00 -0.11402867737E+02  0.11402868022E+02  0.25500000000E-02 0.  1.
          2    1    1    2    0  502  0.19936472023E+02 -0.39425553545E+01  0.22960503364E+02  0.30662540349E+02  0.25500000000E-02 0.  1.
         -2    1    1    2  502    0 -0.19936472023E+02  0.39425553545E+01  0.61205188434E+01  0.21224217697E+02  0.25500000000E-02 0.  1.
<mgrwt>
<rscale>  0 0.42971267E+02</rscale>
<asrwt>0</asrwt>
<pdfrwt beam="1">  1        2 0.62282908E-02 0.42971267E+02</pdfrwt>
<pdfrwt beam="2">  1       -2 0.17542874E-02 0.42971267E+02</pdfrwt>
<totfact> 0.72742264E+05</totfact>
</mgrwt>
</event>
<event>
 4    1  0.4696545E-002  0.7204219E+02  0.7818608E-02  0.1353283E+00
          2   -1    0    0    0  501  0.00000000000E+00  0.00000000000E+00  0.96013642194E+01  0.96013645580E+01  0.25500000000E-02 0. -1.
         -2   -1    0    0  501    0 -0.00000000000E+00 -0.00000000000E+00 -0.13513904059E+03  0.13513904061E+03  0.25500000000E-02 0. -1.
          2    1    1    2    0  502 -0.23293236144E+02  0.26580932806E+02 -0.76745970720E+02  0.84492987089E+02  0.25500000000E-02 0.  1.
         -2    1    1    2  502    0  0.23293236144E+02 -0.26580932806E+02 -0.48791705650E+02  0.60247418083E+02  0.25500000000E-02 0.  1.
<mgrwt>
<rscale>  0 0.72042187E+02</rscale>
<asrwt>0</asrwt>
<pdfrwt beam="1">  1        2 0.14771331E-02 0.72042187E+02</pdfrwt>
<pdfrwt beam="2">  1       -2 0.20790620E-01 0.72042187E+02</pdfrwt>
<totfact> 0.13109720E+05</totfact>
</mgrwt>
</event>
<event>
 4    1  0.4696545E-002  0.7377950E+02  0.7818608E-02  0.1347693E+00
          2   -1    0    0    0  501  0.00000000000E+00  0.00000000000E+00  0.18904152668E+03  0.18904152670E+03  0.25500000000E-02 0. -1.
         -2   -1    0    0  501    0 -0.00000000000E+00 -0.00000000000E+00 -0.71987021604E+01  0.71987026121E+01  0.25500000000E-02 0. -1.
          2    1    1    2    0  502 -0.32537711397E+02 -0.36113236695E+01  0.45695908984E+02  0.56212635822E+02  0.25500000000E-02 0. -1.
         -2    1    1    2  502    0  0.32537711397E+02  0.36113236695E+01  0.13614691553E+03  0.14002759349E+03  0.25500000000E-02 0. -1.
<mgrwt>
<rscale>  0 0.73779501E+02</rscale>
<asrwt>0</asrwt>
<pdfrwt beam="1">  1        2 0.29083311E-01 0.73779501E+02</pdfrwt>
<pdfrwt beam="2">  1       -2 0.11074927E-02 0.73779501E+02</pdfrwt>
<totfact> 0.26626212E+05</totfact>
</mgrwt>
</event>
<event>
 4    1  0.4696545E-002  0.5656743E+02  0.7818608E-02  0.1412828E+00
         -2   -1    0    0  501    0 -0.00000000000E+00  0.00000000000E+00  0.17826800567E+01  0.17826818805E+01  0.25500000000E-02 0. -1.
          2   -1    0    0    0  501  0.00000000000E+00 -0.00000000000E+00 -0.44874471790E+03  0.44874471790E+03  0.25500000000E-02 0. -1.
          2    1    1    2    0  502 -0.26098182103E+02 -0.70269706509E+01 -0.28986598683E+03  0.29112331366E+03  0.25500000000E-02 0.  1.
         -2    1    1    2  502    0  0.26098182103E+02  0.70269706509E+01 -0.15709605101E+03  0.15940408613E+03  0.25500000000E-02 0.  1.
<mgrwt>
<rscale>  0 0.56567435E+02</rscale>
<asrwt>0</asrwt>
<pdfrwt beam="2">  1        2 0.69037559E-01 0.56567435E+02</pdfrwt>
<pdfrwt beam="1">  1       -2 0.27425897E-03 0.56567435E+02</pdfrwt>
<totfact> 0.71320177E+05</totfact>
</mgrwt>
</event>
<event>
 4    1  0.4696545E-002  0.4898640E+02  0.7818608E-02  0.1450887E+00
          2   -1    0    0    0  501  0.00000000000E+00  0.00000000000E+00  0.77219359876E+03  0.77219359876E+03  0.25500000000E-02 0.  1.
         -2   -1    0    0  501    0 -0.00000000000E+00 -0.00000000000E+00 -0.77689750523E+00  0.77690169014E+00  0.25500000000E-02 0.  1.
          2    1    1    2    0  502 -0.18847854454E+02  0.15638518979E+02  0.38042760130E+03  0.38121511608E+03  0.25500000000E-02 0.  1.
         -2    1    1    2  502    0  0.18847854454E+02 -0.15638518979E+02  0.39098909995E+03  0.39175538437E+03  0.25500000000E-02 0.  1.
<mgrwt>
<rscale>  0 0.48986402E+02</rscale>
<asrwt>0</asrwt>
<pdfrwt beam="1">  1        2 0.11879938E+00 0.48986402E+02</pdfrwt>
<pdfrwt beam="2">  1       -2 0.11952265E-03 0.48986402E+02</pdfrwt>
<totfact> 0.11807795E+06</totfact>
</mgrwt>
</event>
<event>
 4    1  0.4696545E-002  0.4667956E+02  0.7818608E-02  0.1464121E+00
         -2   -1    0    0  501    0 -0.00000000000E+00  0.00000000000E+00  0.72604610779E+00  0.72605058580E+00  0.25500000000E-02 0.  1.
          2   -1    0    0    0  501  0.00000000000E+00 -0.00000000000E+00 -0.75028800249E+03  0.75028800250E+03  0.25500000000E-02 0.  1.
          2    1    1    2    0  502 -0.22028382159E+02  0.53243997880E+01 -0.46457056423E+03  0.46512300309E+03  0.25500000000E-02 0. -1.
         -2    1    1    2  502    0  0.22028382159E+02 -0.53243997880E+01 -0.28499139216E+03  0.28589104999E+03  0.25500000000E-02 0. -1.
<mgrwt>
<rscale>  0 0.46679562E+02</rscale>
<asrwt>0</asrwt>
<pdfrwt beam="2">  1        2 0.11542830E+00 0.46679562E+02</pdfrwt>
<pdfrwt beam="1">  1       -2 0.11170035E-03 0.46679562E+02</pdfrwt>
<totfact> 0.13219340E+06</totfact>
</mgrwt>
</event>
<event>
 4    1  0.4696545E-002  0.5408479E+02  0.7818608E-02  0.1424477E+00
         -2   -1    0    0  501    0 -0.00000000000E+00  0.00000000000E+00  0.30236275345E+01  0.30236286098E+01  0.25500000000E-02 0. -1.
          2   -1    0    0    0  501  0.00000000000E+00 -0.00000000000E+00 -0.24185882882E+03  0.24185882884E+03  0.25500000000E-02 0. -1.
          2    1    1    2    0  502  0.11699121894E+02  0.23531105196E+02 -0.14830620391E+03  0.15061644163E+03  0.25500000000E-02 0. -1.
         -2    1    1    2  502    0 -0.11699121894E+02 -0.23531105196E+02 -0.90528997378E+02  0.94266015815E+02  0.25500000000E-02 0. -1.
<mgrwt>
<rscale>  0 0.54084791E+02</rscale>
<asrwt>0</asrwt>
<pdfrwt beam="2">  1        2 0.37209036E-01 0.54084791E+02</pdfrwt>
<pdfrwt beam="1">  1       -2 0.46517374E-03 0.54084791E+02</pdfrwt>
<totfact> 0.64460508E+05</totfact>
</mgrwt>
</event>
<event>
 4    1  0.4696545E-002  0.4383211E+02  0.7818608E-02  0.1481767E+00
         -2   -1    0    0  501    0 -0.00000000000E+00  0.00000000000E+00  0.78715868488E+02  0.78715868530E+02  0.25500000000E-02 0.  1.
          2   -1    0    0    0  501  0.00000000000E+00 -0.00000000000E+00 -0.61018623699E+01  0.61018629027E+01  0.25500000000E-02 0.  1.
          2    1    1    2    0  502 -0.11715274787E+02  0.18476632348E+02  0.33799023202E+02  0.40261738439E+02  0.25500000000E-02 0.  1.
         -2    1    1    2  502    0  0.11715274787E+02 -0.18476632348E+02  0.38814982917E+02  0.44555992993E+02  0.25500000000E-02 0.  1.
<mgrwt>
<rscale>  0 0.43832108E+02</rscale>
<asrwt>0</asrwt>
<pdfrwt beam="2">  1        2 0.93874819E-03 0.43832108E+02</pdfrwt>
<pdfrwt beam="1">  1       -2 0.12110132E-01 0.43832108E+02</pdfrwt>
<totfact> 0.51331530E+05</totfact>
</mgrwt>
</event>
<event>
 4    1  0.4696545E-002  0.1435022E+03  0.7818608E-02  0.1208693E+00
          2   -1    0    0    0  501  0.00000000000E+00  0.00000000000E+00  0.12824231558E+04  0.12824231558E+04  0.25500000000E-02 0. -1.
         -2   -1    0    0  501    0 -0.00000000000E+00 -0.00000000000E+00 -0.40144477807E+01  0.40144485906E+01  0.25500000000E-02 0. -1.
          2    1    1    2    0  502 -0.22408206004E+02  0.13457260705E+02  0.40185279880E+02  0.47938317529E+02  0.25500000000E-02 0.  1.
         -2    1    1    2  502    0  0.22408206004E+02 -0.13457260705E+02  0.12382234281E+04  0.12384992869E+04  0.25500000000E-02 0.  1.
<mgrwt>
<rscale>  0 0.14350221E+03</rscale>
<asrwt>0</asrwt>
<pdfrwt beam="1">  1        2 0.19729606E+00 0.14350221E+03</pdfrwt>
<pdfrwt beam="2">  1       -2 0.61760681E-03 0.14350221E+03</pdfrwt>
<totfact> 0.72694143E+04</totfact>
</mgrwt>
</event>
<event>
 4    1  0.4696545E-002  0.8483999E+02  0.7818608E-02  0.1315852E+00
         -2   -1    0    0  501    0 -0.00000000000E+00  0.00000000000E+00  0.85298298198E+01  0.85298302009E+01  0.25500000000E-02 0.  1.
          2   -1    0    0    0  501  0.00000000000E+00 -0.00000000000E+00 -0.21096036254E+03  0.21096036256E+03  0.25500000000E-02 0.  1.
          2    1    1    2    0  502  0.87650323422E+01 -0.41357022941E+02 -0.92168934795E+02  0.10140188206E+03  0.25500000000E-02 0. -1.
         -2    1    1    2  502    0 -0.87650323422E+01  0.41357022941E+02 -0.11026159793E+03  0.11808831070E+03  0.25500000000E-02 0. -1.
<mgrwt>
<rscale>  0 0.84839991E+02</rscale>
<asrwt>0</asrwt>
<pdfrwt beam="2">  1        2 0.32455436E-01 0.84839991E+02</pdfrwt>
<pdfrwt beam="1">  1       -2 0.13122817E-02 0.84839991E+02</pdfrwt>
<totfact> 0.19122849E+05</totfact>
</mgrwt>
</event>
<event>
 4    1  0.4696545E-002  0.4117161E+02  0.7818608E-02  0.1499762E+00
         -2   -1    0    0  501    0 -0.00000000000E+00  0.00000000000E+00  0.18418759117E+00  0.18420524216E+00  0.25500000000E-02 0. -1.
          2   -1    0    0    0  501  0.00000000000E+00 -0.00000000000E+00 -0.23006713362E+04  0.23006713362E+04  0.25500000000E-02 0. -1.
          2    1    1    2    0  502  0.94373253526E+01  0.18276893722E+02 -0.11045869577E+04  0.11047784642E+04  0.25500000000E-02 0.  1.
         -2    1    1    2  502    0 -0.94373253526E+01 -0.18276893722E+02 -0.11959001909E+04  0.11960770772E+04  0.25500000000E-02 0.  1.
<mgrwt>
<rscale>  0 0.41171613E+02</rscale>
<asrwt>0</asrwt>
<pdfrwt beam="2">  1        2 0.35392643E+00 0.41171613E+02</pdfrwt>
<pdfrwt beam="1">  1       -2 0.28339753E-04 0.41171613E+02</pdfrwt>
<totfact> 0.12810323E+06</totfact>
</mgrwt>
</event>
<event>
 4    1  0.4696545E-002  0.4117929E+02  0.7818608E-02  0.1499708E+00
         -2   -1    0    0  501    0 -0.00000000000E+00  0.00000000000E+00  0.63855993109E+02  0.63855993160E+02  0.25500000000E-02 0.  1.
          2   -1    0    0    0  501  0.00000000000E+00 -0.00000000000E+00 -0.66388972158E+01  0.66388977055E+01  0.25500000000E-02 0.  1.
          2    1    1    2    0  502 -0.76364963441E+01 -0.18656812919E+02  0.35778257853E+02  0.41066732110E+02  0.25500000000E-02 0. -1.
         -2    1    1    2  502    0  0.76364963441E+01  0.18656812919E+02  0.21438838040E+02  0.29428158755E+02  0.25500000000E-02 0. -1.
<mgrwt>
<rscale>  0 0.41179286E+02</rscale>
<asrwt>0</asrwt>
<pdfrwt beam="2">  1        2 0.10213688E-02 0.41179286E+02</pdfrwt>
<pdfrwt beam="1">  1       -2 0.98239992E-02 0.41179286E+02</pdfrwt>
<totfact> 0.62128922E+05</totfact>
</mgrwt>
</event>
<event>
 4    1  0.4696545E-002  0.4850300E+02  0.7818608E-02  0.1453587E+00
          2   -1    0    0    0  501  0.00000000000E+00  0.00000000000E+00  0.28255717270E+02  0.28255717385E+02  0.25500000000E-02 0.  1.
         -2   -1    0    0  501    0 -0.00000000000E+00 -0.00000000000E+00 -0.20814734246E+02  0.20814734403E+02  0.25500000000E-02 0.  1.
          2    1    1    2    0  502 -0.22962753356E+02 -0.49942650072E+01  0.97826324101E+01  0.25454481492E+02  0.25500000000E-02 0. -1.
         -2    1    1    2  502    0  0.22962753356E+02  0.49942650072E+01 -0.23416493861E+01  0.23615970296E+02  0.25500000000E-02 0. -1.
<mgrwt>
<rscale>  0 0.48503000E+02</rscale>
<asrwt>0</asrwt>
<pdfrwt beam="1">  1        2 0.43470334E-02 0.48503000E+02</pdfrwt>
<pdfrwt beam="2">  1       -2 0.32022668E-02 0.48503000E+02</pdfrwt>
<totfact> 0.50342678E+05</totfact>
</mgrwt>
</event>
<event>
 4    1  0.4696545E-002  0.4077250E+02  0.7818608E-02  0.1502602E+00
         -2   -1    0    0  501    0 -0.00000000000E+00  0.00000000000E+00  0.26104418843E+01  0.26104431298E+01  0.25500000000E-02 0.  1.
          2   -1    0    0    0  501  0.00000000000E+00 -0.00000000000E+00 -0.15920639568E+03  0.15920639570E+03  0.25500000000E-02 0.  1.
          2    1    1    2    0  502  0.65329977512E+01  0.19252843243E+02 -0.84247309661E+02  0.86665801930E+02  0.25500000000E-02 0. -1.
         -2    1    1    2  502    0 -0.65329977512E+01 -0.19252843243E+02 -0.72348644135E+02  0.75151036901E+02  0.25500000000E-02 0. -1.
<mgrwt>
<rscale>  0 0.40772498E+02</rscale>
<asrwt>0</asrwt>
<pdfrwt beam="2">  1        2 0.24493284E-01 0.40772498E+02</pdfrwt>
<pdfrwt beam="1">  1       -2 0.40160667E-03 0.40772498E+02</pdfrwt>
<totfact> 0.11344641E+06</totfact>
</mgrwt>
</event>
<event>
 4    1  0.4696545E-002  0.4308685E+02  0.7818608E-02  0.1486651E+00
         -2   -1    0    0  501    0 -0.00000000000E+00  0.00000000000E+00  0.12987580195E+02  0.12987580446E+02  0.25500000000E-02 0.  1.
          2   -1    0    0    0  501  0.00000000000E+00 -0.00000000000E+00 -0.35735607537E+02  0.35735607628E+02  0.25500000000E-02 0.  1.
          2    1    1    2    0  502  0.88717647800E+01 -0.19486613634E+02 -0.86783218522E+01  0.23103021402E+02  0.25500000000E-02 0.  1.
         -2    1    1    2  502    0 -0.88717647800E+01  0.19486613634E+02 -0.14069705490E+02  0.25620166672E+02  0.25500000000E-02 0.  1.
<mgrwt>
<rscale>  0 0.43086846E+02</rscale>
<asrwt>0</asrwt>
<pdfrwt beam="2">  1        2 0.54977858E-02 0.43086846E+02</pdfrwt>
<pdfrwt beam="1">  1       -2 0.19980893E-02 0.43086846E+02</pdfrwt>
<totfact> 0.70821124E+05</totfact>
</mgrwt>
</event>
<event>
 4    1  0.4696545E-002  0.4742129E+02  0.7818608E-02  0.1459768E+00
         -2   -1    0    0  501    0 -0.00000000000E+00  0.00000000000E+00  0.69623492710E+00  0.69623959684E+00  0.25500000000E-02 0. -1.
          2   -1    0    0    0  501  0.00000000000E+00 -0.00000000000E+00 -0.80747559198E+03  0.80747559198E+03  0.25500000000E-02 0. -1.
          2    1    1    2    0  502  0.21154816257E+02 -0.10708194314E+02 -0.40430992048E+03  0.40500457217E+03  0.25500000000E-02 0. -1.
         -2    1    1    2  502    0 -0.21154816257E+02  0.10708194314E+02 -0.40246943657E+03  0.40316725941E+03  0.25500000000E-02 0. -1.
<mgrwt>
<rscale>  0 0.47421286E+02</rscale>
<asrwt>0</asrwt>
<pdfrwt beam="2">  1        2 0.12422627E+00 0.47421286E+02</pdfrwt>
<pdfrwt beam="1">  1       -2 0.10711407E-03 0.47421286E+02</pdfrwt>
<totfact> 0.12888425E+06</totfact>
</mgrwt>
</event>
<event>
 4    1  0.4696545E-002  0.9614336E+02  0.7818608E-02  0.1288622E+00
          2   -1    0    0    0  501  0.00000000000E+00  0.00000000000E+00  0.41069709657E+02  0.41069709736E+02  0.25500000000E-02 0. -1.
         -2   -1    0    0  501    0 -0.00000000000E+00 -0.00000000000E+00 -0.56267420019E+02  0.56267420077E+02  0.25500000000E-02 0. -1.
          2    1    1    2    0  502 -0.95597153137E+01 -0.36546997981E+02  0.22499308590E+02  0.43969195033E+02  0.25500000000E-02 0. -1.
         -2    1    1    2  502    0  0.95597153137E+01  0.36546997981E+02 -0.37697018952E+02  0.53367934780E+02  0.25500000000E-02 0. -1.
<mgrwt>
<rscale>  0 0.96143364E+02</rscale>
<asrwt>0</asrwt>
<pdfrwt beam="1">  1        2 0.63184169E-02 0.96143364E+02</pdfrwt>
<pdfrwt beam="2">  1       -2 0.86565262E-02 0.96143364E+02</pdfrwt>
<totfact> 0.82305489E+04</totfact>
</mgrwt>
</event>
<event>
 4    1  0.4696545E-002  0.6547426E+02  0.7818608E-02  0.1376196E+00
          2   -1    0    0    0  501  0.00000000000E+00  0.00000000000E+00  0.84473302294E+02  0.84473302332E+02  0.25500000000E-02 0. -1.
         -2   -1    0    0  501    0 -0.00000000000E+00 -0.00000000000E+00 -0.12687079845E+02  0.12687080101E+02  0.25500000000E-02 0. -1.
          2    1    1    2    0  502 -0.26158000785E+02  0.19493300224E+02  0.39954300002E+02  0.51580770194E+02  0.25500000000E-02 0. -1.
         -2    1    1    2  502    0  0.26158000785E+02 -0.19493300224E+02  0.31831922447E+02  0.45579612239E+02  0.25500000000E-02 0. -1.
<mgrwt>
<rscale>  0 0.65474256E+02</rscale>
<asrwt>0</asrwt>
<pdfrwt beam="1">  1        2 0.12995893E-01 0.65474256E+02</pdfrwt>
<pdfrwt beam="2">  1       -2 0.19518584E-02 0.65474256E+02</pdfrwt>
<totfact> 0.28555342E+05</totfact>
</mgrwt>
</event>
<event>
 4    1  0.4696545E-002  0.7347840E+02  0.7818608E-02  0.1348649E+00
         -2   -1    0    0  501    0 -0.00000000000E+00  0.00000000000E+00  0.12382618067E+01  0.12382644323E+01  0.25500000000E-02 0.  1.
          2   -1    0    0    0  501  0.00000000000E+00 -0.00000000000E+00 -0.10900499412E+04  0.10900499412E+04  0.25500000000E-02 0.  1.
          2    1    1    2    0  502 -0.10117052924E+02 -0.35247359999E+02 -0.51107187855E+03  0.51238578844E+03  0.25500000000E-02 0.  1.
         -2    1    1    2  502    0  0.10117052924E+02  0.35247359999E+02 -0.57773980089E+03  0.57890241724E+03  0.25500000000E-02 0.  1.
<mgrwt>
<rscale>  0 0.73478395E+02</rscale>
<asrwt>0</asrwt>
<pdfrwt beam="2">  1        2 0.16769922E+00 0.73478395E+02</pdfrwt>
<pdfrwt beam="1">  1       -2 0.19050289E-03 0.73478395E+02</pdfrwt>
<totfact> 0.43898109E+05</totfact>
</mgrwt>
</event>
<event>
 4    1  0.4696545E-002  0.4134700E+02  0.7818608E-02  0.1498527E+00
          2   -1    0    0    0  501  0.00000000000E+00  0.00000000000E+00  0.25066906829E+04  0.25066906829E+04  0.25500000000E-02 0. -1.
         -2   -1    0    0  501    0 -0.00000000000E+00 -0.00000000000E+00 -0.17049163134E+00  0.17051070013E+00  0.25500000000E-02 0. -1.
          2    1    1    2    0  502 -0.14688565253E+02  0.14260102144E+02  0.10787007842E+04  0.10788950302E+04  0.25500000000E-02 0. -1.
         -2    1    1    2  502    0  0.14688565253E+02 -0.14260102144E+02  0.14278194071E+04  0.14279661634E+04  0.25500000000E-02 0. -1.
<mgrwt>
<rscale>  0 0.41347004E+02</rscale>
<asrwt>0</asrwt>
<pdfrwt beam="1">  1        2 0.38565243E+00 0.41347004E+02</pdfrwt>
<pdfrwt beam="2">  1       -2 0.26230424E-04 0.41347004E+02</pdfrwt>
<totfact> 0.11218737E+06</totfact>
</mgrwt>
</event>
<event>
 4    1  0.4696545E-002  0.4470444E+02  0.7818608E-02  0.1476195E+00
         -2   -1    0    0  501    0 -0.00000000000E+00  0.00000000000E+00  0.13999693714E+02  0.13999693946E+02  0.25500000000E-02 0. -1.
          2   -1    0    0    0  501  0.00000000000E+00 -0.00000000000E+00 -0.35688043175E+02  0.35688043266E+02  0.25500000000E-02 0. -1.
          2    1    1    2    0  502 -0.20921702561E+02  0.35352455294E+01 -0.30316974512E+01  0.21433776964E+02  0.25500000000E-02 0. -1.
         -2    1    1    2  502    0  0.20921702561E+02 -0.35352455294E+01 -0.18656652009E+02  0.28253960248E+02  0.25500000000E-02 0. -1.
<mgrwt>
<rscale>  0 0.44704437E+02</rscale>
<asrwt>0</asrwt>
<pdfrwt beam="2">  1        2 0.54904682E-02 0.44704437E+02</pdfrwt>
<pdfrwt beam="1">  1       -2 0.21537991E-02 0.44704437E+02</pdfrwt>
<totfact> 0.64458632E+05</totfact>
</mgrwt>
</event>
<event>
 4    1  0.4696545E-002  0.5504349E+02  0.7818608E-02  0.1419893E+00
         -2   -1    0    0  501    0 -0.00000000000E+00  0.00000000000E+00  0.37017190329E+01  0.37017199112E+01  0.25500000000E-02 0.  1.
          2   -1    0    0    0  501  0.00000000000E+00 -0.00000000000E+00 -0.20462017030E+03  0.20462017032E+03  0.25500000000E-02 0.  1.
          2    1    1    2    0  502 -0.13221126985E+02  0.21490275975E+02 -0.14205907073E+03  0.14428239582E+03  0.25500000000E-02 0.  1.
         -2    1    1    2  502    0  0.13221126985E+02 -0.21490275975E+02 -0.58859380537E+02  0.64039494408E+02  0.25500000000E-02 0.  1.
<mgrwt>
<rscale>  0 0.55043491E+02</rscale>
<asrwt>0</asrwt>
<pdfrwt beam="2">  1        2 0.31480017E-01 0.55043491E+02</pdfrwt>
<pdfrwt beam="1">  1       -2 0.56949547E-03 0.55043491E+02</pdfrwt>
<totfact> 0.58236432E+05</totfact>
</mgrwt>
</event>
<event>
 4    1  0.4696545E-002  0.5232797E+02  0.7818608E-02  0.1433175E+00
         -2   -1    0    0  501    0 -0.00000000000E+00  0.00000000000E+00  0.67925693637E+00  0.67926172284E+00  0.25500000000E-02 0. -1.
          2   -1    0    0    0  501  0.00000000000E+00 -0.00000000000E+00 -0.10077947367E+04  0.10077947367E+04  0.25500000000E-02 0. -1.
          2    1    1    2    0  502 -0.15042420291E+01  0.24094289752E+02 -0.69796469270E+03  0.69838206578E+03  0.25500000000E-02 0. -1.
         -2    1    1    2  502    0  0.15042420291E+01 -0.24094289752E+02 -0.30915078706E+03  0.31009193265E+03  0.25500000000E-02 0. -1.
<mgrwt>
<rscale>  0 0.52327965E+02</rscale>
<asrwt>0</asrwt>
<pdfrwt beam="2">  1        2 0.15504415E+00 0.52327965E+02</pdfrwt>
<pdfrwt beam="1">  1       -2 0.10450224E-03 0.52327965E+02</pdfrwt>
<totfact> 0.10348121E+06</totfact>
</mgrwt>
</event>
<event>
 4    1  0.4696545E-002  0.6377843E+02  0.7818608E-02  0.1382626E+00
         -2   -1    0    0  501    0 -0.00000000000E+00  0.00000000000E+00  0.97582540695E+00  0.97582873874E+00  0.25500000000E-02 0.  1.
          2   -1    0    0    0  501  0.00000000000E+00 -0.00000000000E+00 -0.10421128028E+04  0.10421128028E+04  0.25500000000E-02 0.  1.
          2    1    1    2    0  502  0.66113809808E+01 -0.31139217400E+02 -0.55142969574E+03  0.55234778045E+03  0.25500000000E-02 0.  1.
         -2    1    1    2  502    0 -0.66113809808E+01  0.31139217400E+02 -0.48970728164E+03  0.49074085108E+03  0.25500000000E-02 0.  1.
<mgrwt>
<rscale>  0 0.63778425E+02</rscale>
<asrwt>0</asrwt>
<pdfrwt beam="2">  1        2 0.16032416E+00 0.63778425E+02</pdfrwt>
<pdfrwt beam="1">  1       -2 0.15012808E-03 0.63778425E+02</pdfrwt>
<totfact> 0.63049476E+05</totfact>
</mgrwt>
</event>
<event>
 4    1  0.4696545E-002  0.7400244E+02  0.7818608E-02  0.1346988E+00
         -2   -1    0    0  501    0 -0.00000000000E+00  0.00000000000E+00  0.55301436934E+02  0.55301436993E+02  0.25500000000E-02 0. -1.
          2   -1    0    0    0  501  0.00000000000E+00 -0.00000000000E+00 -0.24756864453E+02  0.24756864585E+02  0.25500000000E-02 0. -1.
          2    1    1    2    0  502 -0.18638229538E+02  0.17473200997E+02  0.44228132711E+02  0.51076649097E+02  0.25500000000E-02 0.  1.
         -2    1    1    2  502    0  0.18638229538E+02 -0.17473200997E+02 -0.13683560230E+02  0.28981652480E+02  0.25500000000E-02 0.  1.
<mgrwt>
<rscale>  0 0.74002437E+02</rscale>
<asrwt>0</asrwt>
<pdfrwt beam="2">  1        2 0.38087484E-02 0.74002437E+02</pdfrwt>
<pdfrwt beam="1">  1       -2 0.85079133E-02 0.74002437E+02</pdfrwt>
<totfact> 0.15511991E+05</totfact>
</mgrwt>
</event>
<event>
 4    1  0.4696545E-002  0.6235027E+02  0.7818608E-02  0.1388225E+00
          2   -1    0    0    0  501  0.00000000000E+00  0.00000000000E+00  0.46297629630E+03  0.46297629631E+03  0.25500000000E-02 0. -1.
         -2   -1    0    0  501    0 -0.00000000000E+00 -0.00000000000E+00 -0.20992193630E+01  0.20992209118E+01  0.25500000000E-02 0. -1.
          2    1    1    2    0  502  0.14724328119E+02 -0.25077605105E+02  0.31423191743E+03  0.31557469806E+03  0.25500000000E-02 0. -1.
         -2    1    1    2  502    0 -0.14724328119E+02  0.25077605105E+02  0.14664515951E+03  0.14950081916E+03  0.25500000000E-02 0. -1.
<mgrwt>
<rscale>  0 0.62350274E+02</rscale>
<asrwt>0</asrwt>
<pdfrwt beam="1">  1        2 0.71227238E-01 0.62350274E+02</pdfrwt>
<pdfrwt beam="2">  1       -2 0.32295642E-03 0.62350274E+02</pdfrwt>
<totfact> 0.56337386E+05</totfact>
</mgrwt>
</event>
<event>
 4    1  0.4696545E-002  0.4660050E+02  0.7818608E-02  0.1464590E+00
         -2   -1    0    0  501    0 -0.00000000000E+00  0.00000000000E+00  0.59283925018E+00  0.59284473435E+00  0.25500000000E-02 0.  1.
          2   -1    0    0    0  501  0.00000000000E+00 -0.00000000000E+00 -0.91576106083E+03  0.91576106083E+03  0.25500000000E-02 0.  1.
          2    1    1    2    0  502 -0.18723905463E+02  0.99710928292E+01 -0.26805882491E+03  0.26889689650E+03  0.25500000000E-02 0.  1.
         -2    1    1    2  502    0  0.18723905463E+02 -0.99710928292E+01 -0.64710939667E+03  0.64745700907E+03  0.25500000000E-02 0.  1.
<mgrwt>
<rscale>  0 0.46600498E+02</rscale>
<asrwt>0</asrwt>
<pdfrwt beam="2">  1        2 0.14088519E+00 0.46600498E+02</pdfrwt>
<pdfrwt beam="1">  1       -2 0.91207193E-04 0.46600498E+02</pdfrwt>
<totfact> 0.13678273E+06</totfact>
</mgrwt>
</event>
<event>
 4    1  0.4696545E-002  0.5984754E+02  0.7818608E-02  0.1398473E+00
          2   -1    0    0    0  501  0.00000000000E+00  0.00000000000E+00  0.15372442413E+04  0.15372442413E+04  0.25500000000E-02 0. -1.
         -2   -1    0    0  501    0 -0.00000000000E+00 -0.00000000000E+00 -0.58248885745E+00  0.58249443907E+00  0.25500000000E-02 0. -1.
          2    1    1    2    0  502 -0.26720177802E+02 -0.12204116292E+01  0.42361065708E+03  0.42445429212E+03  0.25500000000E-02 0.  1.
         -2    1    1    2  502    0  0.26720177802E+02  0.12204116292E+01  0.11130510954E+04  0.11133724436E+04  0.25500000000E-02 0.  1.
<mgrwt>
<rscale>  0 0.59847537E+02</rscale>
<asrwt>0</asrwt>
<pdfrwt beam="1">  1        2 0.23650083E+00 0.59847537E+02</pdfrwt>
<pdfrwt beam="2">  1       -2 0.89613451E-04 0.59847537E+02</pdfrwt>
<totfact> 0.69253754E+05</totfact>
</mgrwt>
</event>
<event>
 4    1  0.4696545E-002  0.6417556E+02  0.7818608E-02  0.1381100E+00
         -2   -1    0    0  501    0 -0.00000000000E+00  0.00000000000E+00  0.17495439731E+03  0.17495439733E+03  0.25500000000E-02 0. -1.
          2   -1    0    0    0  501  0.00000000000E+00 -0.00000000000E+00 -0.58851081897E+01  0.58851087421E+01  0.25500000000E-02 0. -1.
          2    1    1    2    0  502 -0.24816843433E+02  0.19357896833E+02  0.66932044637E+02  0.73962845358E+02  0.25500000000E-02 0.  1.
         -2    1    1    2  502    0  0.24816843433E+02 -0.19357896833E+02  0.10213724448E+03  0.10687666071E+03  0.25500000000E-02 0.  1.
<mgrwt>
<rscale>  0 0.64175559E+02</rscale>
<asrwt>0</asrwt>
<pdfrwt beam="2">  1        2 0.90540144E-03 0.64175559E+02</pdfrwt>
<pdfrwt beam="1">  1       -2 0.26916057E-01 0.64175559E+02</pdfrwt>
<totfact> 0.15999703E+05</totfact>
</mgrwt>
</event>
<event>
 4    1  0.4696545E-002  0.5563374E+02  0.7818608E-02  0.1417125E+00
         -2   -1    0    0  501    0 -0.00000000000E+00  0.00000000000E+00  0.93373159637E+00  0.93373507836E+00  0.25500000000E-02 0. -1.
          2   -1    0    0    0  501  0.00000000000E+00 -0.00000000000E+00 -0.82869289137E+03  0.82869289137E+03  0.25500000000E-02 0. -1.
          2    1    1    2    0  502  0.16684967613E+02  0.17110304112E+02 -0.62615204628E+03  0.62660796015E+03  0.25500000000E-02 0. -1.
         -2    1    1    2  502    0 -0.16684967613E+02 -0.17110304112E+02 -0.20160711349E+03  0.20301866630E+03  0.25500000000E-02 0. -1.
<mgrwt>
<rscale>  0 0.55633737E+02</rscale>
<asrwt>0</asrwt>
<pdfrwt beam="2">  1        2 0.12749063E+00 0.55633737E+02</pdfrwt>
<pdfrwt beam="1">  1       -2 0.14365195E-03 0.55633737E+02</pdfrwt>
<totfact> 0.87160317E+05</totfact>
</mgrwt>
</event>
<event>
 4    1  0.4696545E-002  0.1326260E+03  0.7818608E-02  0.1223610E+00
         -2   -1    0    0  501    0 -0.00000000000E+00  0.00000000000E+00  0.53313144223E+01  0.53313150322E+01  0.25500000000E-02 0.  1.
          2   -1    0    0    0  501  0.00000000000E+00 -0.00000000000E+00 -0.82482775299E+03  0.82482775300E+03  0.25500000000E-02 0.  1.
          2    1    1    2    0  502  0.16169056603E+02 -0.25597199098E+02 -0.77904000798E+03  0.77962810944E+03  0.25500000000E-02 0.  1.
         -2    1    1    2  502    0 -0.16169056603E+02  0.25597199098E+02 -0.40456430593E+02  0.50530958589E+02  0.25500000000E-02 0.  1.
<mgrwt>
<rscale>  0 0.13262604E+03</rscale>
<asrwt>0</asrwt>
<pdfrwt beam="2">  1        2 0.12689648E+00 0.13262604E+03</pdfrwt>
<pdfrwt beam="1">  1       -2 0.82020292E-03 0.13262604E+03</pdfrwt>
<totfact> 0.89602790E+04</totfact>
</mgrwt>
</event>
<event>
 4    1  0.4696545E-002  0.1001797E+03  0.7818608E-02  0.1279918E+00
          2   -1    0    0    0  501  0.00000000000E+00  0.00000000000E+00  0.90895672243E+03  0.90895672244E+03  0.25500000000E-02 0. -1.
         -2   -1    0    0  501    0 -0.00000000000E+00 -0.00000000000E+00 -0.27603013146E+01  0.27603024924E+01  0.25500000000E-02 0. -1.
          2    1    1    2    0  502 -0.44441592410E+02  0.20248608588E+02  0.55441346743E+03  0.55656028798E+03  0.25500000000E-02 0. -1.
         -2    1    1    2  502    0  0.44441592410E+02 -0.20248608588E+02  0.35178295369E+03  0.35515673694E+03  0.25500000000E-02 0. -1.
<mgrwt>
<rscale>  0 0.10017974E+03</rscale>
<asrwt>0</asrwt>
<pdfrwt beam="1">  1        2 0.13983939E+00 0.10017974E+03</pdfrwt>
<pdfrwt beam="2">  1       -2 0.42466216E-03 0.10017974E+03</pdfrwt>
<totfact> 0.19346485E+05</totfact>
</mgrwt>
</event>
<event>
 4    1  0.4696545E-002  0.2550024E+03  0.7818608E-02  0.1110184E+00
          2   -1    0    0    0  501  0.00000000000E+00  0.00000000000E+00  0.58912935090E+03  0.58912935090E+03  0.25500000000E-02 0. -1.
         -2   -1    0    0  501    0 -0.00000000000E+00 -0.00000000000E+00 -0.27594210227E+02  0.27594210345E+02  0.25500000000E-02 0. -1.
          2    1    1    2    0  502 -0.11629390219E+03  0.16325287130E+02  0.40086196368E+03  0.41770934945E+03  0.25500000000E-02 0. -1.
         -2    1    1    2  502    0  0.11629390219E+03 -0.16325287130E+02  0.16067317699E+03  0.19901421180E+03  0.25500000000E-02 0. -1.
<mgrwt>
<rscale>  0 0.25500243E+03</rscale>
<asrwt>0</asrwt>
<pdfrwt beam="1">  1        2 0.90635293E-01 0.25500243E+03</pdfrwt>
<pdfrwt beam="2">  1       -2 0.42452627E-02 0.25500243E+03</pdfrwt>
<totfact> 0.12827195E+04</totfact>
</mgrwt>
</event>
<event>
 4    1  0.4696545E-002  0.4710513E+02  0.7818608E-02  0.1461612E+00
          2   -1    0    0    0  501  0.00000000000E+00  0.00000000000E+00  0.98744066012E+02  0.98744066045E+02  0.25500000000E-02 0.  1.
         -2   -1    0    0  501    0 -0.00000000000E+00 -0.00000000000E+00 -0.56177885288E+01  0.56177891075E+01  0.25500000000E-02 0.  1.
          2    1    1    2    0  502  0.22621761283E+02 -0.65476111634E+01  0.47291267383E+02  0.52830666026E+02  0.25500000000E-02 0.  1.
         -2    1    1    2  502    0 -0.22621761283E+02  0.65476111634E+01  0.45835010100E+02  0.51531189127E+02  0.25500000000E-02 0.  1.
<mgrwt>
<rscale>  0 0.47105130E+02</rscale>
<asrwt>0</asrwt>
<pdfrwt beam="1">  1        2 0.15191392E-01 0.47105130E+02</pdfrwt>
<pdfrwt beam="2">  1       -2 0.86427535E-03 0.47105130E+02</pdfrwt>
<totfact> 0.69367011E+05</totfact>
</mgrwt>
</event>
<event>
 4    1  0.4696545E-002  0.5410497E+02  0.7818608E-02  0.1424380E+00
          2   -1    0    0    0  501  0.00000000000E+00  0.00000000000E+00  0.21617369411E+02  0.21617369561E+02  0.25500000000E-02 0. -1.
         -2   -1    0    0  501    0 -0.00000000000E+00 -0.00000000000E+00 -0.33854120220E+02  0.33854120316E+02  0.25500000000E-02 0. -1.
          2    1    1    2    0  502 -0.96125615129E+01 -0.24142819406E+02 -0.13828957656E+02  0.29436663263E+02  0.25500000000E-02 0. -1.
         -2    1    1    2  502    0  0.96125615129E+01  0.24142819406E+02  0.15922068464E+01  0.26034826615E+02  0.25500000000E-02 0. -1.
<mgrwt>
<rscale>  0 0.54104973E+02</rscale>
<asrwt>0</asrwt>
<pdfrwt beam="1">  1        2 0.33257492E-02 0.54104973E+02</pdfrwt>
<pdfrwt beam="2">  1       -2 0.52083262E-02 0.54104973E+02</pdfrwt>
<totfact> 0.36084112E+05</totfact>
</mgrwt>
</event>
<event>
 4    1  0.4696545E-002  0.7342046E+02  0.7818608E-02  0.1348833E+00
          2   -1    0    0    0  501  0.00000000000E+00  0.00000000000E+00  0.10864235519E+04  0.10864235519E+04  0.25500000000E-02 0.  1.
         -2   -1    0    0  501    0 -0.00000000000E+00 -0.00000000000E+00 -0.12404365210E+01  0.12404391420E+01  0.25500000000E-02 0.  1.
          2    1    1    2    0  502 -0.17382725413E+02 -0.24322642294E+02  0.85820344872E+03  0.85872400076E+03  0.25500000000E-02 0.  1.
         -2    1    1    2  502    0  0.17382725413E+02  0.24322642294E+02  0.22697966666E+03  0.22893999029E+03  0.25500000000E-02 0.  1.
<mgrwt>
<rscale>  0 0.73420457E+02</rscale>
<asrwt>0</asrwt>
<pdfrwt beam="1">  1        2 0.16714171E+00 0.73420457E+02</pdfrwt>
<pdfrwt beam="2">  1       -2 0.19083702E-03 0.73420457E+02</pdfrwt>
<totfact> 0.43990572E+05</totfact>
</mgrwt>
</event>
<event>
 4    1  0.4696545E-002  0.5022467E+02  0.7818608E-02  0.1444134E+00
          2   -1    0    0    0  501  0.00000000000E+00  0.00000000000E+00  0.59949035788E+03  0.59949035789E+03  0.25500000000E-02 0.  1.
         -2   -1    0    0  501    0 -0.00000000000E+00 -0.00000000000E+00 -0.10519408476E+01  0.10519439383E+01  0.25500000000E-02 0.  1.
          2    1    1    2    0  502 -0.23159219107E+02  0.95494595902E+01  0.27820830152E+03  0.27933385160E+03  0.25500000000E-02 0.  1.
         -2    1    1    2  502    0  0.23159219107E+02 -0.95494595902E+01  0.32023011552E+03  0.32120845023E+03  0.25500000000E-02 0.  1.
<mgrwt>
<rscale>  0 0.50224668E+02</rscale>
<asrwt>0</asrwt>
<pdfrwt beam="1">  1        2 0.92229222E-01 0.50224668E+02</pdfrwt>
<pdfrwt beam="2">  1       -2 0.16183740E-03 0.50224668E+02</pdfrwt>
<totfact> 0.10472319E+06</totfact>
</mgrwt>
</event>
<event>
 4    1  0.4696545E-002  0.4615771E+02  0.7818608E-02  0.1467241E+00
          2   -1    0    0    0  501  0.00000000000E+00  0.00000000000E+00  0.30423236485E+03  0.30423236486E+03  0.25500000000E-02 0.  1.
         -2   -1    0    0  501    0 -0.00000000000E+00 -0.00000000000E+00 -0.17507450388E+01  0.17507468958E+01  0.25500000000E-02 0.  1.
          2    1    1    2    0  502  0.11642207938E+02  0.19925345711E+02  0.14944758260E+03  0.15121884921E+03  0.25500000000E-02 0.  1.
         -2    1    1    2  502    0 -0.11642207938E+02 -0.19925345711E+02  0.15303403722E+03  0.15476426254E+03  0.25500000000E-02 0.  1.
<mgrwt>
<rscale>  0 0.46157712E+02</rscale>
<asrwt>0</asrwt>
<pdfrwt beam="1">  1        2 0.46804960E-01 0.46157712E+02</pdfrwt>
<pdfrwt beam="2">  1       -2 0.26934564E-03 0.46157712E+02</pdfrwt>
<totfact> 0.10362525E+06</totfact>
</mgrwt>
</event>
<event>
 4    1  0.4696545E-002  0.5702076E+02  0.7818608E-02  0.1410777E+00
         -2   -1    0    0  501    0 -0.00000000000E+00  0.00000000000E+00  0.18546747614E+03  0.18546747616E+03  0.25500000000E-02 0. -1.
          2   -1    0    0    0  501  0.00000000000E+00 -0.00000000000E+00 -0.43826648529E+01  0.43826655947E+01  0.25500000000E-02 0. -1.
          2    1    1    2    0  502 -0.21006978167E+02 -0.18134974391E+02  0.68793045670E+02  0.74179873058E+02  0.25500000000E-02 0. -1.
         -2    1    1    2  502    0  0.21006978167E+02  0.18134974391E+02  0.11229176562E+03  0.11567026870E+03  0.25500000000E-02 0. -1.
<mgrwt>
<rscale>  0 0.57020763E+02</rscale>
<asrwt>0</asrwt>
<pdfrwt beam="2">  1        2 0.67425639E-03 0.57020763E+02</pdfrwt>
<pdfrwt beam="1">  1       -2 0.28533450E-01 0.57020763E+02</pdfrwt>
<totfact> 0.21005324E+05</totfact>
</mgrwt>
</event>
<event>
 4    1  0.4696545E-002  0.5759393E+02  0.7818608E-02  0.1408216E+00
         -2   -1    0    0  501    0 -0.00000000000E+00  0.00000000000E+00  0.18047542053E+01  0.18047560068E+01  0.25500000000E-02 0. -1.
          2   -1    0    0    0  501  0.00000000000E+00 -0.00000000000E+00 -0.45948902786E+03  0.45948902787E+03  0.25500000000E-02 0. -1.
          2    1    1    2    0  502  0.20197424390E+02 -0.13913257298E+02 -0.34971548416E+03  0.35057443510E+03  0.25500000000E-02 0.  1.
         -2    1    1    2  502    0 -0.20197424390E+02  0.13913257298E+02 -0.10796878950E+03  0.11071934877E+03  0.25500000000E-02 0.  1.
<mgrwt>
<rscale>  0 0.57593929E+02</rscale>
<asrwt>0</asrwt>
<pdfrwt beam="2">  1        2 0.70690527E-01 0.57593929E+02</pdfrwt>
<pdfrwt beam="1">  1       -2 0.27765500E-03 0.57593929E+02</pdfrwt>
<totfact> 0.68693944E+05</totfact>
</mgrwt>
</event>
<event>
 4    1  0.4696545E-002  0.4844785E+02  0.7818608E-02  0.1453898E+00
         -2   -1    0    0  501    0 -0.00000000000E+00  0.00000000000E+00  0.35300060347E+00  0.35300981368E+00  0.25500000000E-02 0.  1.
          2   -1    0    0    0  501  0.00000000000E+00 -0.00000000000E+00 -0.16622943393E+04  0.16622943393E+04  0.25500000000E-02 0.  1.
          2    1    1    2    0  502 -0.23243429214E+02 -0.40393983934E+01 -0.64229866705E+03  0.64273178811E+03  0.25500000000E-02 0. -1.
         -2    1    1    2  502    0  0.23243429214E+02  0.40393983934E+01 -0.10196426716E+04  0.10199155610E+04  0.25500000000E-02 0. -1.
<mgrwt>
<rscale>  0 0.48447851E+02</rscale>
<asrwt>0</asrwt>
<pdfrwt beam="2">  1        2 0.25573133E+00 0.48447851E+02</pdfrwt>
<pdfrwt beam="1">  1       -2 0.54309825E-04 0.48447851E+02</pdfrwt>
<totfact> 0.11328536E+06</totfact>
</mgrwt>
</event>
<event>
 4    1  0.4696545E-002  0.4019576E+02  0.7818608E-02  0.1506776E+00
          2   -1    0    0    0  501  0.00000000000E+00  0.00000000000E+00  0.77429989132E+01  0.77429993330E+01  0.25500000000E-02 0.  1.
         -2   -1    0    0  501    0 -0.00000000000E+00 -0.00000000000E+00 -0.52166440415E+02  0.52166440478E+02  0.25500000000E-02 0.  1.
          2    1    1    2    0  502 -0.12308665651E+02 -0.15841875589E+02 -0.20413017864E+02  0.28620963944E+02  0.25500000000E-02 0. -1.
         -2    1    1    2  502    0  0.12308665651E+02  0.15841875589E+02 -0.24010423638E+02  0.31288475867E+02  0.25500000000E-02 0. -1.
<mgrwt>
<rscale>  0 0.40195756E+02</rscale>
<asrwt>0</asrwt>
<pdfrwt beam="1">  1        2 0.11912307E-02 0.40195756E+02</pdfrwt>
<pdfrwt beam="2">  1       -2 0.80256060E-02 0.40195756E+02</pdfrwt>
<totfact> 0.68158353E+05</totfact>
</mgrwt>
</event>
<event>
 4    1  0.4696545E-002  0.6557162E+02  0.7818608E-02  0.1375834E+00
          2   -1    0    0    0  501  0.00000000000E+00  0.00000000000E+00  0.34457314297E+03  0.34457314298E+03  0.25500000000E-02 0.  1.
         -2   -1    0    0  501    0 -0.00000000000E+00 -0.00000000000E+00 -0.31195388421E+01  0.31195398844E+01  0.25500000000E-02 0.  1.
          2    1    1    2    0  502  0.19255418902E+02 -0.20016784550E+02  0.26309768594E+03  0.26455970058E+03  0.25500000000E-02 0.  1.
         -2    1    1    2  502    0 -0.19255418902E+02  0.20016784550E+02  0.78355918191E+02  0.83132982280E+02  0.25500000000E-02 0.  1.
<mgrwt>
<rscale>  0 0.65571625E+02</rscale>
<asrwt>0</asrwt>
<pdfrwt beam="1">  1        2 0.53011252E-01 0.65571625E+02</pdfrwt>
<pdfrwt beam="2">  1       -2 0.47992914E-03 0.65571625E+02</pdfrwt>
<totfact> 0.44755703E+05</totfact>
</mgrwt>
</event>
<event>
 4    1  0.4696545E-002  0.5865473E+02  0.7818608E-02  0.1403565E+00
         -2   -1    0    0  501    0 -0.00000000000E+00  0.00000000000E+00  0.25388321613E+03  0.25388321614E+03  0.25500000000E-02 0.  1.
          2   -1    0    0    0  501  0.00000000000E+00 -0.00000000000E+00 -0.33877558167E+01  0.33877567764E+01  0.25500000000E-02 0.  1.
          2    1    1    2    0  502  0.20295840029E+02 -0.15639452933E+02  0.18783070138E+03  0.18957026666E+03  0.25500000000E-02 0.  1.
         -2    1    1    2  502    0 -0.20295840029E+02  0.15639452933E+02  0.62664758925E+02  0.67700706261E+02  0.25500000000E-02 0.  1.
<mgrwt>
<rscale>  0 0.58654734E+02</rscale>
<asrwt>0</asrwt>
<pdfrwt beam="2">  1        2 0.52119331E-03 0.58654734E+02</pdfrwt>
<pdfrwt beam="1">  1       -2 0.39058954E-01 0.58654734E+02</pdfrwt>
<totfact> 0.17054056E+05</totfact>
</mgrwt>
</event>
<event>
 4    1  0.4696545E-002  0.7947432E+02  0.7818608E-02  0.1330550E+00
          2   -1    0    0    0  501  0.00000000000E+00  0.00000000000E+00  0.20181799136E+03  0.20181799137E+03  0.25500000000E-02 0. -1.
         -2   -1    0    0  501    0 -0.00000000000E+00 -0.00000000000E+00 -0.78240886327E+01  0.78240890483E+01  0.25500000000E-02 0. -1.
          2    1    1    2    0  502 -0.13023828425E+02  0.33656467491E+02  0.53120858341E+02  0.64219961914E+02  0.25500000000E-02 0.  1.
         -2    1    1    2  502    0  0.13023828425E+02 -0.33656467491E+02  0.14087304438E+03  0.14542211851E+03  0.25500000000E-02 0.  1.
<mgrwt>
<rscale>  0 0.79474320E+02</rscale>
<asrwt>0</asrwt>
<pdfrwt beam="1">  1        2 0.31048924E-01 0.79474320E+02</pdfrwt>
<pdfrwt beam="2">  1       -2 0.12037059E-02 0.79474320E+02</pdfrwt>
<totfact> 0.22390396E+05</totfact>
</mgrwt>
</event>
<event>
 4    1  0.4696545E-002  0.6952348E+02  0.7818608E-02  0.1361721E+00
          2   -1    0    0    0  501  0.00000000000E+00  0.00000000000E+00  0.46799125350E+03  0.46799125351E+03  0.25500000000E-02 0.  1.
         -2   -1    0    0  501    0 -0.00000000000E+00 -0.00000000000E+00 -0.25820530937E+01  0.25820543529E+01  0.25500000000E-02 0.  1.
          2    1    1    2    0  502  0.33319000017E+01 -0.29047762684E+02  0.10544421040E+03  0.10942282937E+03  0.25500000000E-02 0.  1.
         -2    1    1    2  502    0 -0.33319000017E+01  0.29047762684E+02  0.35996499001E+03  0.36115047849E+03  0.25500000000E-02 0.  1.
<mgrwt>
<rscale>  0 0.69523480E+02</rscale>
<asrwt>0</asrwt>
<pdfrwt beam="1">  1        2 0.71998701E-01 0.69523480E+02</pdfrwt>
<pdfrwt beam="2">  1       -2 0.39723878E-03 0.69523480E+02</pdfrwt>
<totfact> 0.42791495E+05</totfact>
</mgrwt>
</event>
<event>
 4    1  0.4696545E-002  0.4795185E+02  0.7818608E-02  0.1456712E+00
         -2   -1    0    0  501    0 -0.00000000000E+00  0.00000000000E+00  0.14889874709E+01  0.14889896544E+01  0.25500000000E-02 0.  1.
          2   -1    0    0    0  501  0.00000000000E+00 -0.00000000000E+00 -0.38606402936E+03  0.38606402937E+03  0.25500000000E-02 0.  1.
          2    1    1    2    0  502  0.16725434707E+02  0.16224633929E+02 -0.14666391456E+03  0.14850347724E+03  0.25500000000E-02 0.  1.
         -2    1    1    2  502    0 -0.16725434707E+02 -0.16224633929E+02 -0.23791112733E+03  0.23904954179E+03  0.25500000000E-02 0.  1.
<mgrwt>
<rscale>  0 0.47951848E+02</rscale>
<asrwt>0</asrwt>
<pdfrwt beam="2">  1        2 0.59394386E-01 0.47951848E+02</pdfrwt>
<pdfrwt beam="1">  1       -2 0.22907547E-03 0.47951848E+02</pdfrwt>
<totfact> 0.10236361E+06</totfact>
</mgrwt>
</event>
<event>
 4    1  0.4696545E-002  0.5292147E+02  0.7818608E-02  0.1430192E+00
          2   -1    0    0    0  501  0.00000000000E+00  0.00000000000E+00  0.10724848934E+02  0.10724849237E+02  0.25500000000E-02 0. -1.
         -2   -1    0    0  501    0 -0.00000000000E+00 -0.00000000000E+00 -0.65284890032E+02  0.65284890082E+02  0.25500000000E-02 0. -1.
          2    1    1    2    0  502 -0.10057846220E+02  0.17592211663E+02 -0.51718822079E+02  0.55547121847E+02  0.25500000000E-02 0. -1.
         -2    1    1    2  502    0  0.10057846220E+02 -0.17592211663E+02 -0.28412190198E+01  0.20462617472E+02  0.25500000000E-02 0. -1.
<mgrwt>
<rscale>  0 0.52921474E+02</rscale>
<asrwt>0</asrwt>
<pdfrwt beam="1">  1        2 0.16499768E-02 0.52921474E+02</pdfrwt>
<pdfrwt beam="2">  1       -2 0.10043829E-01 0.52921474E+02</pdfrwt>
<totfact> 0.33821549E+05</totfact>
</mgrwt>
</event>
<event>
 4    1  0.4696545E-002  0.4752359E+02  0.7818608E-02  0.1459175E+00
         -2   -1    0    0  501    0 -0.00000000000E+00  0.00000000000E+00  0.81339829116E+00  0.81340228827E+00  0.25500000000E-02 0.  1.
          2   -1    0    0    0  501  0.00000000000E+00 -0.00000000000E+00 -0.69415138554E+03  0.69415138555E+03  0.25500000000E-02 0.  1.
          2    1    1    2    0  502 -0.73096294736E+01  0.19458843524E+02 -0.17831000754E+03  0.17951750909E+03  0.25500000000E-02 0.  1.
         -2    1    1    2  502    0  0.73096294736E+01 -0.19458843524E+02 -0.51502797971E+03  0.51544727875E+03  0.25500000000E-02 0.  1.
<mgrwt>
<rscale>  0 0.47523592E+02</rscale>
<asrwt>0</asrwt>
<pdfrwt beam="2">  1        2 0.10679205E+00 0.47523592E+02</pdfrwt>
<pdfrwt beam="1">  1       -2 0.12513906E-03 0.47523592E+02</pdfrwt>
<totfact> 0.12445538E+06</totfact>
</mgrwt>
</event>
<event>
 4    1  0.4696545E-002  0.9925430E+02  0.7818608E-02  0.1281872E+00
          2   -1    0    0    0  501  0.00000000000E+00  0.00000000000E+00  0.20899042738E+01  0.20899058294E+01  0.25500000000E-02 0.  1.
         -2   -1    0    0  501    0 -0.00000000000E+00 -0.00000000000E+00 -0.11784525081E+04  0.11784525081E+04  0.25500000000E-02 0.  1.
          2    1    1    2    0  502  0.10856387993E+01  0.46658676068E+02 -0.38751119980E+03  0.39031159429E+03  0.25500000000E-02 0.  1.
         -2    1    1    2  502    0 -0.10856387993E+01 -0.46658676068E+02 -0.78885140405E+03  0.79023081966E+03  0.25500000000E-02 0.  1.
<mgrwt>
<rscale>  0 0.99254297E+02</rscale>
<asrwt>0</asrwt>
<pdfrwt beam="1">  1        2 0.32152480E-03 0.99254297E+02</pdfrwt>
<pdfrwt beam="2">  1       -2 0.18129985E+00 0.99254297E+02</pdfrwt>
<totfact> 0.12192931E+04</totfact>
</mgrwt>
</event>
<event>
 4    1  0.4696545E-002  0.4647281E+02  0.7818608E-02  0.1465351E+00
          2   -1    0    0    0  501  0.00000000000E+00  0.00000000000E+00  0.78449326120E+02  0.78449326161E+02  0.25500000000E-02 0. -1.
         -2   -1    0    0  501    0 -0.00000000000E+00 -0.00000000000E+00 -0.68825372959E+01  0.68825377683E+01  0.25500000000E-02 0. -1.
          2    1    1    2    0  502 -0.19282537991E+02  0.12825373391E+02  0.39278849194E+02  0.45597527065E+02  0.25500000000E-02 0.  1.
         -2    1    1    2  502    0  0.19282537991E+02 -0.12825373391E+02  0.32287939630E+02  0.39734336865E+02  0.25500000000E-02 0.  1.
<mgrwt>
<rscale>  0 0.46472806E+02</rscale>
<asrwt>0</asrwt>
<pdfrwt beam="1">  1        2 0.12069128E-01 0.46472806E+02</pdfrwt>
<pdfrwt beam="2">  1       -2 0.10588519E-02 0.46472806E+02</pdfrwt>
<totfact> 0.67872945E+05</totfact>
</mgrwt>
</event>
<event>
 4    1  0.4696545E-002  0.1191147E+03  0.7818608E-02  0.1244565E+00
          2   -1    0    0    0  501  0.00000000000E+00  0.00000000000E+00  0.93030633249E+03  0.93030633249E+03  0.25500000000E-02 0.  1.
         -2   -1    0    0  501    0 -0.00000000000E+00 -0.00000000000E+00 -0.38128066405E+01  0.38128074932E+01  0.25500000000E-02 0.  1.
          2    1    1    2    0  502  0.54398281369E+02 -0.23485761078E+02  0.51051148302E+03  0.51393844796E+03  0.25500000000E-02 0.  1.
         -2    1    1    2  502    0 -0.54398281369E+02  0.23485761078E+02  0.41598204282E+03  0.42018069202E+03  0.25500000000E-02 0.  1.
<mgrwt>
<rscale>  0 0.11911471E+03</rscale>
<asrwt>0</asrwt>
<pdfrwt beam="1">  1        2 0.14312421E+00 0.11911471E+03</pdfrwt>
<pdfrwt beam="2">  1       -2 0.58658505E-03 0.11911471E+03</pdfrwt>
<totfact> 0.12191865E+05</totfact>
</mgrwt>
</event>
<event>
 4    1  0.4696545E-002  0.4997378E+02  0.7818608E-02  0.1445483E+00
          2   -1    0    0    0  501  0.00000000000E+00  0.00000000000E+00  0.19828530888E+04  0.19828530888E+04  0.25500000000E-02 0. -1.
         -2   -1    0    0  501    0 -0.00000000000E+00 -0.00000000000E+00 -0.31486677206E+00  0.31487709769E+00  0.25500000000E-02 0. -1.
          2    1    1    2    0  502 -0.14533565926E+02 -0.18661200114E+02  0.67162095833E+03  0.67203733275E+03  0.25500000000E-02 0.  1.
         -2    1    1    2  502    0  0.14533565926E+02  0.18661200114E+02  0.13109172637E+04  0.13111306332E+04  0.25500000000E-02 0.  1.
<mgrwt>
<rscale>  0 0.49973785E+02</rscale>
<asrwt>0</asrwt>
<pdfrwt beam="1">  1        2 0.30505644E+00 0.49973785E+02</pdfrwt>
<pdfrwt beam="2">  1       -2 0.48441500E-04 0.49973785E+02</pdfrwt>
<totfact> 0.92883800E+05</totfact>
</mgrwt>
</event>
<event>
 4    1  0.4696545E-002  0.5990086E+02  0.7818608E-02  0.1398248E+00
          2   -1    0    0    0  501  0.00000000000E+00  0.00000000000E+00  0.60698226800E+02  0.60698226854E+02  0.25500000000E-02 0. -1.
         -2   -1    0    0  501    0 -0.00000000000E+00 -0.00000000000E+00 -0.14778493334E+02  0.14778493554E+02  0.25500000000E-02 0. -1.
          2    1    1    2    0  502  0.26047094463E+02 -0.31911227981E+01  0.47702941823E+01  0.26671897341E+02  0.25500000000E-02 0.  1.
         -2    1    1    2  502    0 -0.26047094463E+02  0.31911227981E+01  0.41149439284E+02  0.48804823067E+02  0.25500000000E-02 0.  1.
<mgrwt>
<rscale>  0 0.59900863E+02</rscale>
<asrwt>0</asrwt>
<pdfrwt beam="1">  1        2 0.93381886E-02 0.59900863E+02</pdfrwt>
<pdfrwt beam="2">  1       -2 0.22736144E-02 0.59900863E+02</pdfrwt>
<totfact> 0.33357818E+05</totfact>
</mgrwt>
</event>
<event>
 4    1  0.4696545E-002  0.1049224E+03  0.7818608E-02  0.1270273E+00
         -2   -1    0    0  501    0 -0.00000000000E+00  0.00000000000E+00  0.21021447657E+01  0.21021463124E+01  0.25500000000E-02 0.  1.
          2   -1    0    0    0  501  0.00000000000E+00 -0.00000000000E+00 -0.13092222043E+04  0.13092222043E+04  0.25500000000E-02 0.  1.
          2    1    1    2    0  502  0.28259232901E+02 -0.11741233299E+02 -0.11861196919E+04  0.11865143759E+04  0.25500000000E-02 0. -1.
         -2    1    1    2  502    0 -0.28259232901E+02  0.11741233299E+02 -0.12100036770E+03  0.12480997474E+03  0.25500000000E-02 0. -1.
<mgrwt>
<rscale>  0 0.10492236E+03</rscale>
<asrwt>0</asrwt>
<pdfrwt beam="2">  1        2 0.20141815E+00 0.10492236E+03</pdfrwt>
<pdfrwt beam="1">  1       -2 0.32340805E-03 0.10492236E+03</pdfrwt>
<totfact> 0.16908500E+05</totfact>
</mgrwt>
</event>
<event>
 4    1  0.4696545E-002  0.6591442E+02  0.7818608E-02  0.1374564E+00
          2   -1    0    0    0  501  0.00000000000E+00  0.00000000000E+00  0.57144079115E+03  0.57144079115E+03  0.25500000000E-02 0. -1.
         -2   -1    0    0  501    0 -0.00000000000E+00 -0.00000000000E+00 -0.19007695497E+01  0.19007712602E+01  0.25500000000E-02 0. -1.
          2    1    1    2    0  502 -0.29768810034E+02  0.90973521889E+01  0.19058982650E+03  0.19311505855E+03  0.25500000000E-02 0.  1.
         -2    1    1    2  502    0  0.29768810034E+02 -0.90973521889E+01  0.37895019510E+03  0.38022650386E+03  0.25500000000E-02 0.  1.
<mgrwt>
<rscale>  0 0.65914422E+02</rscale>
<asrwt>0</asrwt>
<pdfrwt beam="1">  1        2 0.87914027E-01 0.65914422E+02</pdfrwt>
<pdfrwt beam="2">  1       -2 0.29242602E-03 0.65914422E+02</pdfrwt>
<totfact> 0.52185900E+05</totfact>
</mgrwt>
</event>
<event>
 4    1  0.4696545E-002  0.5981577E+02  0.7818608E-02  0.1398606E+00
          2   -1    0    0    0  501  0.00000000000E+00  0.00000000000E+00  0.19359065688E+04  0.19359065688E+04  0.25500000000E-02 0.  1.
         -2   -1    0    0  501    0 -0.00000000000E+00 -0.00000000000E+00 -0.46204442975E+00  0.46205146635E+00  0.25500000000E-02 0.  1.
          2    1    1    2    0  502  0.19930327011E+02  0.21820385218E+02  0.81889983005E+03  0.81943290073E+03  0.25500000000E-02 0. -1.
         -2    1    1    2  502    0 -0.19930327011E+02 -0.21820385218E+02  0.11165446943E+04  0.11169357195E+04  0.25500000000E-02 0. -1.
<mgrwt>
<rscale>  0 0.59815773E+02</rscale>
<asrwt>0</asrwt>
<pdfrwt beam="1">  1        2 0.29783134E+00 0.59815773E+02</pdfrwt>
<pdfrwt beam="2">  1       -2 0.71084404E-04 0.59815773E+02</pdfrwt>
<totfact> 0.60336767E+05</totfact>
</mgrwt>
</event>
<event>
 4    1  0.4696545E-002  0.4826791E+02  0.7818608E-02  0.1454914E+00
         -2   -1    0    0  501    0 -0.00000000000E+00  0.00000000000E+00  0.27628528362E+01  0.27628540129E+01  0.25500000000E-02 0. -1.
          2   -1    0    0    0  501  0.00000000000E+00 -0.00000000000E+00 -0.21081386478E+03  0.21081386480E+03  0.25500000000E-02 0. -1.
          2    1    1    2    0  502 -0.32942483504E+01 -0.23865238760E+02 -0.11035487012E+03  0.11295396876E+03  0.25500000000E-02 0.  1.
         -2    1    1    2  502    0  0.32942483504E+01  0.23865238760E+02 -0.97696141823E+02  0.10062275005E+03  0.25500000000E-02 0.  1.
<mgrwt>
<rscale>  0 0.48267911E+02</rscale>
<asrwt>0</asrwt>
<pdfrwt beam="2">  1        2 0.32432890E-01 0.48267911E+02</pdfrwt>
<pdfrwt beam="1">  1       -2 0.42505454E-03 0.48267911E+02</pdfrwt>
<totfact> 0.81813957E+05</totfact>
</mgrwt>
</event>
<event>
 4    1  0.4696545E-002  0.4633131E+02  0.7818608E-02  0.1466198E+00
          2   -1    0    0    0  501  0.00000000000E+00  0.00000000000E+00  0.25781798138E+02  0.25781798264E+02  0.25500000000E-02 0. -1.
         -2   -1    0    0  501    0 -0.00000000000E+00 -0.00000000000E+00 -0.20814977790E+02  0.20814977947E+02  0.25500000000E-02 0. -1.
          2    1    1    2    0  502 -0.13213483979E+02 -0.18998038410E+02  0.14162302321E+01  0.23184635793E+02  0.25500000000E-02 0.  1.
         -2    1    1    2  502    0  0.13213483979E+02  0.18998038410E+02  0.35505901158E+01  0.23412140418E+02  0.25500000000E-02 0.  1.
<mgrwt>
<rscale>  0 0.46331310E+02</rscale>
<asrwt>0</asrwt>
<pdfrwt beam="1">  1        2 0.39664305E-02 0.46331310E+02</pdfrwt>
<pdfrwt beam="2">  1       -2 0.32023043E-02 0.46331310E+02</pdfrwt>
<totfact> 0.55931318E+05</totfact>
</mgrwt>
</event>
<event>
 4    1  0.4696545E-002  0.8167053E+02  0.7818608E-02  0.1324376E+00
         -2   -1    0    0  501    0 -0.00000000000E+00  0.00000000000E+00  0.83593917564E+00  0.83594306497E+00  0.25500000000E-02 0. -1.
          2   -1    0    0    0  501  0.00000000000E+00 -0.00000000000E+00 -0.19947802312E+04  0.19947802313E+04  0.25500000000E-02 0. -1.
          2    1    1    2    0  502  0.27142053119E+02  0.14837275110E+02 -0.34556934471E+03  0.34695101641E+03  0.25500000000E-02 0.  1.
         -2    1    1    2  502    0 -0.27142053119E+02 -0.14837275110E+02 -0.16483749474E+04  0.16486651579E+04  0.25500000000E-02 0.  1.
<mgrwt>
<rscale>  0 0.81670529E+02</rscale>
<asrwt>0</asrwt>
<pdfrwt beam="2">  1        2 0.30688546E+00 0.81670529E+02</pdfrwt>
<pdfrwt beam="1">  1       -2 0.12860792E-03 0.81670529E+02</pdfrwt>
<totfact> 0.26355339E+05</totfact>
</mgrwt>
</event>
<event>
 4    1  0.4696545E-002  0.1021288E+03  0.7818608E-02  0.1275882E+00
         -2   -1    0    0  501    0 -0.00000000000E+00  0.00000000000E+00  0.43363471869E+02  0.43363471944E+02  0.25500000000E-02 0.  1.
          2   -1    0    0    0  501  0.00000000000E+00 -0.00000000000E+00 -0.60132884849E+02  0.60132884903E+02  0.25500000000E-02 0.  1.
          2    1    1    2    0  502 -0.35942941485E+02  0.10819223087E+02 -0.43469408225E+02  0.57432918163E+02  0.25500000000E-02 0.  1.
         -2    1    1    2  502    0  0.35942941485E+02 -0.10819223087E+02  0.26699995245E+02  0.46063438684E+02  0.25500000000E-02 0.  1.
<mgrwt>
<rscale>  0 0.10212876E+03</rscale>
<asrwt>0</asrwt>
<pdfrwt beam="2">  1        2 0.92512131E-02 0.10212876E+03</pdfrwt>
<pdfrwt beam="1">  1       -2 0.66713034E-02 0.10212876E+03</pdfrwt>
<totfact> 0.76796773E+04</totfact>
</mgrwt>
</event>
<event>
 4    1  0.4696545E-002  0.4632495E+02  0.7818608E-02  0.1466236E+00
         -2   -1    0    0  501    0 -0.00000000000E+00  0.00000000000E+00  0.44135266124E+00  0.44136002774E+00  0.25500000000E-02 0.  1.
          2   -1    0    0    0  501  0.00000000000E+00 -0.00000000000E+00 -0.12155714510E+04  0.12155714510E+04  0.25500000000E-02 0.  1.
          2    1    1    2    0  502 -0.15855499543E+02  0.16662419815E+02 -0.67929463165E+03  0.67968391896E+03  0.25500000000E-02 0. -1.
         -2    1    1    2  502    0  0.15855499543E+02 -0.16662419815E+02 -0.53583546673E+03  0.53632889211E+03  0.25500000000E-02 0. -1.
<mgrwt>
<rscale>  0 0.46324947E+02</rscale>
<asrwt>0</asrwt>
<pdfrwt beam="2">  1        2 0.18700831E+00 0.46324947E+02</pdfrwt>
<pdfrwt beam="1">  1       -2 0.67901949E-04 0.46324947E+02</pdfrwt>
<totfact> 0.13883566E+06</totfact>
</mgrwt>
</event>
<event>
 4    1  0.4696545E-002  0.4287532E+02  0.7818608E-02  0.1488059E+00
          2   -1    0    0    0  501  0.00000000000E+00  0.00000000000E+00  0.18367202218E+03  0.18367202220E+03  0.25500000000E-02 0. -1.
         -2   -1    0    0  501    0 -0.00000000000E+00 -0.00000000000E+00 -0.25021402111E+01  0.25021415105E+01  0.25500000000E-02 0. -1.
          2    1    1    2    0  502 -0.51685142218E+00  0.21148570616E+02  0.10565444993E+03  0.10775152886E+03  0.25500000000E-02 0. -1.
         -2    1    1    2  502    0  0.51685142218E+00 -0.21148570616E+02  0.75515432040E+02  0.78422634852E+02  0.25500000000E-02 0. -1.
<mgrwt>
<rscale>  0 0.42875320E+02</rscale>
<asrwt>0</asrwt>
<pdfrwt beam="1">  1        2 0.28257242E-01 0.42875320E+02</pdfrwt>
<pdfrwt beam="2">  1       -2 0.38494464E-03 0.42875320E+02</pdfrwt>
<totfact> 0.10485507E+06</totfact>
</mgrwt>
</event>
<event>
 4    1  0.4696545E-002  0.5984424E+02  0.7818608E-02  0.1398487E+00
          2   -1    0    0    0  501  0.00000000000E+00  0.00000000000E+00  0.10019678457E+04  0.10019678457E+04  0.25500000000E-02 0.  1.
         -2   -1    0    0  501    0 -0.00000000000E+00 -0.00000000000E+00 -0.89357295589E+00  0.89357659437E+00  0.25500000000E-02 0.  1.
          2    1    1    2    0  502 -0.22516326720E+02  0.19301249303E+02  0.56716938346E+03  0.56794421621E+03  0.25500000000E-02 0. -1.
         -2    1    1    2  502    0  0.22516326720E+02 -0.19301249303E+02  0.43390488925E+03  0.43491720604E+03  0.25500000000E-02 0. -1.
<mgrwt>
<rscale>  0 0.59844238E+02</rscale>
<asrwt>0</asrwt>
<pdfrwt beam="1">  1        2 0.15414929E+00 0.59844238E+02</pdfrwt>
<pdfrwt beam="2">  1       -2 0.13747270E-03 0.59844238E+02</pdfrwt>
<totfact> 0.73978264E+05</totfact>
</mgrwt>
</event>
<event>
 4    1  0.4696545E-002  0.6359662E+02  0.7818608E-02  0.1383330E+00
         -2   -1    0    0  501    0 -0.00000000000E+00  0.00000000000E+00  0.13236176595E+02  0.13236176841E+02  0.25500000000E-02 0.  1.
          2   -1    0    0    0  501  0.00000000000E+00 -0.00000000000E+00 -0.76391588248E+02  0.76391588291E+02  0.25500000000E-02 0.  1.
          2    1    1    2    0  502  0.59931994012E+01  0.30790889701E+02 -0.38919044947E+02  0.49986892219E+02  0.25500000000E-02 0. -1.
         -2    1    1    2  502    0 -0.59931994012E+01 -0.30790889701E+02 -0.24236366707E+02  0.39640872913E+02  0.25500000000E-02 0. -1.
<mgrwt>
<rscale>  0 0.63596621E+02</rscale>
<asrwt>0</asrwt>
<pdfrwt beam="2">  1        2 0.11752552E-01 0.63596621E+02</pdfrwt>
<pdfrwt beam="1">  1       -2 0.20363349E-02 0.63596621E+02</pdfrwt>
<totfact> 0.30062616E+05</totfact>
</mgrwt>
</event>
<event>
 4    1  0.4696545E-002  0.1077288E+03  0.7818608E-02  0.1264834E+00
          2   -1    0    0    0  501  0.00000000000E+00  0.00000000000E+00  0.19766443351E+04  0.19766443351E+04  0.25500000000E-02 0. -1.
         -2   -1    0    0  501    0 -0.00000000000E+00 -0.00000000000E+00 -0.14678276877E+01  0.14678299027E+01  0.25500000000E-02 0. -1.
          2    1    1    2    0  502 -0.13786236542E+02  0.49845273469E+02  0.71108141626E+03  0.71295960066E+03  0.25500000000E-02 0. -1.
         -2    1    1    2  502    0  0.13786236542E+02 -0.49845273469E+02  0.12640950911E+04  0.12651525643E+04  0.25500000000E-02 0. -1.
<mgrwt>
<rscale>  0 0.10772884E+03</rscale>
<asrwt>0</asrwt>
<pdfrwt beam="1">  1        2 0.30409857E+00 0.10772884E+03</pdfrwt>
<pdfrwt beam="2">  1       -2 0.22582023E-03 0.10772884E+03</pdfrwt>
<totfact> 0.12757599E+05</totfact>
</mgrwt>
</event>
<event>
 4    1  0.4696545E-002  0.1151461E+03  0.7818608E-02  0.1251326E+00
          2   -1    0    0    0  501  0.00000000000E+00  0.00000000000E+00  0.92555194880E+03  0.92555194880E+03  0.25500000000E-02 0.  1.
         -2   -1    0    0  501    0 -0.00000000000E+00 -0.00000000000E+00 -0.35812751915E+01  0.35812760993E+01  0.25500000000E-02 0.  1.
          2    1    1    2    0  502 -0.45641149848E+02 -0.54131410346E+01  0.74077025854E+03  0.74219471340E+03  0.25500000000E-02 0.  1.
         -2    1    1    2  502    0  0.45641149848E+02  0.54131410346E+01  0.18120041507E+03  0.18693851150E+03  0.25500000000E-02 0.  1.
<mgrwt>
<rscale>  0 0.11514611E+03</rscale>
<asrwt>0</asrwt>
<pdfrwt beam="1">  1        2 0.14239287E+00 0.11514611E+03</pdfrwt>
<pdfrwt beam="2">  1       -2 0.55096446E-03 0.11514611E+03</pdfrwt>
<totfact> 0.13352768E+05</totfact>
</mgrwt>
</event>
<event>
 4    1  0.4696545E-002  0.5054676E+02  0.7818608E-02  0.1442415E+00
         -2   -1    0    0  501    0 -0.00000000000E+00  0.00000000000E+00  0.84735264742E+01  0.84735268579E+01  0.25500000000E-02 0. -1.
          2   -1    0    0    0  501  0.00000000000E+00 -0.00000000000E+00 -0.75381100719E+02  0.75381100762E+02  0.25500000000E-02 0. -1.
          2    1    1    2    0  502  0.17619484540E+02  0.95594951554E+01 -0.79192094804E+01  0.21553284399E+02  0.25500000000E-02 0.  1.
         -2    1    1    2  502    0 -0.17619484540E+02 -0.95594951554E+01 -0.58988364764E+02  0.62301343221E+02  0.25500000000E-02 0.  1.
<mgrwt>
<rscale>  0 0.50546761E+02</rscale>
<asrwt>0</asrwt>
<pdfrwt beam="2">  1        2 0.11597092E-01 0.50546761E+02</pdfrwt>
<pdfrwt beam="1">  1       -2 0.13036195E-02 0.50546761E+02</pdfrwt>
<totfact> 0.54354193E+05</totfact>
</mgrwt>
</event>
<event>
 4    1  0.4696545E-002  0.4873925E+02  0.7818608E-02  0.1452263E+00
          2   -1    0    0    0  501  0.00000000000E+00  0.00000000000E+00  0.16609188658E+04  0.16609188658E+04  0.25500000000E-02 0.  1.
         -2   -1    0    0  501    0 -0.00000000000E+00 -0.00000000000E+00 -0.35755570844E+00  0.35756480132E+00  0.25500000000E-02 0.  1.
          2    1    1    2    0  502 -0.81562125943E+01 -0.19932759387E+02  0.44159246931E+03  0.44211734603E+03  0.25500000000E-02 0.  1.
         -2    1    1    2  502    0  0.81562125943E+01  0.19932759387E+02  0.12189688408E+04  0.12191590846E+04  0.25500000000E-02 0.  1.
<mgrwt>
<rscale>  0 0.48739248E+02</rscale>
<asrwt>0</asrwt>
<pdfrwt beam="1">  1        2 0.25552621E+00 0.48739248E+02</pdfrwt>
<pdfrwt beam="2">  1       -2 0.55009221E-04 0.48739248E+02</pdfrwt>
<totfact> 0.11166200E+06</totfact>
</mgrwt>
</event>
<event>
 4    1  0.4696545E-002  0.6085520E+02  0.7818608E-02  0.1394277E+00
         -2   -1    0    0  501    0 -0.00000000000E+00  0.00000000000E+00  0.40296334192E+00  0.40297141019E+00  0.25500000000E-02 0. -1.
          2   -1    0    0    0  501  0.00000000000E+00 -0.00000000000E+00 -0.22975531265E+04  0.22975531265E+04  0.25500000000E-02 0. -1.
          2    1    1    2    0  502  0.26141645279E+02  0.76918479444E+01 -0.63735020315E+03  0.63793246634E+03  0.25500000000E-02 0.  1.
         -2    1    1    2  502    0 -0.26141645279E+02 -0.76918479444E+01 -0.16597999600E+04  0.16600236316E+04  0.25500000000E-02 0.  1.
<mgrwt>
<rscale>  0 0.60855204E+02</rscale>
<asrwt>0</asrwt>
<pdfrwt beam="2">  1        2 0.35345922E+00 0.60855204E+02</pdfrwt>
<pdfrwt beam="1">  1       -2 0.61996821E-04 0.60855204E+02</pdfrwt>
<totfact> 0.48185460E+05</totfact>
</mgrwt>
</event>
<event>
 4    1  0.4696545E-002  0.8104840E+02  0.7818608E-02  0.1326102E+00
          2   -1    0    0    0  501  0.00000000000E+00  0.00000000000E+00  0.30095645520E+03  0.30095645521E+03  0.25500000000E-02 0. -1.
         -2   -1    0    0  501    0 -0.00000000000E+00 -0.00000000000E+00 -0.54566384757E+01  0.54566390715E+01  0.25500000000E-02 0. -1.
          2    1    1    2    0  502 -0.23873481409E+02 -0.10203241933E+02  0.30114850030E+02  0.39761205457E+02  0.25500000000E-02 0. -1.
         -2    1    1    2  502    0  0.23873481409E+02  0.10203241933E+02  0.26538496669E+03  0.26665188883E+03  0.25500000000E-02 0. -1.
<mgrwt>
<rscale>  0 0.81048397E+02</rscale>
<asrwt>0</asrwt>
<pdfrwt beam="1">  1        2 0.46301000E-01 0.81048397E+02</pdfrwt>
<pdfrwt beam="2">  1       -2 0.83948276E-03 0.81048397E+02</pdfrwt>
<totfact> 0.24573662E+05</totfact>
</mgrwt>
</event>
<event>
 4    1  0.4696545E-002  0.4429306E+02  0.7818608E-02  0.1478804E+00
          2   -1    0    0    0  501  0.00000000000E+00  0.00000000000E+00  0.20458416704E+03  0.20458416706E+03  0.25500000000E-02 0. -1.
         -2   -1    0    0  501    0 -0.00000000000E+00 -0.00000000000E+00 -0.23973935022E+01  0.23973948583E+01  0.25500000000E-02 0. -1.
          2    1    1    2    0  502 -0.38276672349E+01  0.19888403583E+02  0.14296026165E+03  0.14438779744E+03  0.25500000000E-02 0. -1.
         -2    1    1    2  502    0  0.38276672349E+01 -0.19888403583E+02  0.59226511893E+02  0.62593764474E+02  0.25500000000E-02 0. -1.
<mgrwt>
<rscale>  0 0.44293065E+02</rscale>
<asrwt>0</asrwt>
<pdfrwt beam="1">  1        2 0.31474494E-01 0.44293065E+02</pdfrwt>
<pdfrwt beam="2">  1       -2 0.36882980E-03 0.44293065E+02</pdfrwt>
<totfact> 0.10023025E+06</totfact>
</mgrwt>
</event>
<event>
 4    1  0.4696545E-002  0.6731782E+02  0.7818608E-02  0.1369459E+00
          2   -1    0    0    0  501  0.00000000000E+00  0.00000000000E+00  0.10590861104E+04  0.10590861104E+04  0.25500000000E-02 0.  1.
         -2   -1    0    0  501    0 -0.00000000000E+00 -0.00000000000E+00 -0.10697152587E+01  0.10697182980E+01  0.25500000000E-02 0.  1.
          2    1    1    2    0  502  0.22245836963E+02  0.37122735448E+01  0.92248922275E+03  0.92276488031E+03  0.25500000000E-02 0. -1.
         -2    1    1    2  502    0 -0.22245836963E+02 -0.37122735448E+01  0.13552717243E+03  0.13739094843E+03  0.25500000000E-02 0. -1.
<mgrwt>
<rscale>  0 0.67317819E+02</rscale>
<asrwt>0</asrwt>
<pdfrwt beam="1">  1        2 0.16293659E+00 0.67317819E+02</pdfrwt>
<pdfrwt beam="2">  1       -2 0.16457154E-03 0.67317819E+02</pdfrwt>
<totfact> 0.54962973E+05</totfact>
</mgrwt>
</event>
<event>
 4    1  0.4696545E-002  0.4162710E+02  0.7818608E-02  0.1496568E+00
         -2   -1    0    0  501    0 -0.00000000000E+00  0.00000000000E+00  0.12197534707E+01  0.12197561362E+01  0.25500000000E-02 0.  1.
          2   -1    0    0    0  501  0.00000000000E+00 -0.00000000000E+00 -0.35515648572E+03  0.35515648573E+03  0.25500000000E-02 0.  1.
          2    1    1    2    0  502 -0.57601110527E+00  0.20739870873E+02 -0.19111318873E+03  0.19223611769E+03  0.25500000000E-02 0. -1.
         -2    1    1    2  502    0  0.57601110527E+00 -0.20739870873E+02 -0.16282354352E+03  0.16414012417E+03  0.25500000000E-02 0. -1.
<mgrwt>
<rscale>  0 0.41627099E+02</rscale>
<asrwt>0</asrwt>
<pdfrwt beam="2">  1        2 0.54639377E-01 0.41627099E+02</pdfrwt>
<pdfrwt beam="1">  1       -2 0.18765487E-03 0.41627099E+02</pdfrwt>
<totfact> 0.14068181E+06</totfact>
</mgrwt>
</event>
<event>
 4    1  0.4696545E-002  0.7146193E+02  0.7818608E-02  0.1355191E+00
         -2   -1    0    0  501    0 -0.00000000000E+00  0.00000000000E+00  0.65159351497E+00  0.65159850464E+00  0.25500000000E-02 0.  1.
          2   -1    0    0    0  501  0.00000000000E+00 -0.00000000000E+00 -0.19593454747E+04  0.19593454747E+04  0.25500000000E-02 0.  1.
          2    1    1    2    0  502 -0.23342914212E+02 -0.44574728531E+01 -0.17111642981E+04  0.17113293125E+04  0.25500000000E-02 0. -1.
         -2    1    1    2  502    0  0.23342914212E+02  0.44574728531E+01 -0.24752958310E+03  0.24866776073E+03  0.25500000000E-02 0. -1.
<mgrwt>
<rscale>  0 0.71461925E+02</rscale>
<asrwt>0</asrwt>
<pdfrwt beam="2">  1        2 0.30143305E+00 0.71461925E+02</pdfrwt>
<pdfrwt beam="1">  1       -2 0.10024711E-03 0.71461925E+02</pdfrwt>
<totfact> 0.37888340E+05</totfact>
</mgrwt>
</event>
<event>
 4    1  0.4696545E-002  0.5880800E+02  0.7818608E-02  0.1402903E+00
         -2   -1    0    0  501    0 -0.00000000000E+00  0.00000000000E+00  0.29374659613E+00  0.29375766414E+00  0.25500000000E-02 0. -1.
          2   -1    0    0    0  501  0.00000000000E+00 -0.00000000000E+00 -0.29432813874E+04  0.29432813874E+04  0.25500000000E-02 0. -1.
          2    1    1    2    0  502  0.50534476081E+01  0.28799002136E+02 -0.16271876251E+04  0.16274503025E+04  0.25500000000E-02 0. -1.
         -2    1    1    2  502    0 -0.50534476081E+01 -0.28799002136E+02 -0.13158000157E+04  0.13161248426E+04  0.25500000000E-02 0. -1.
<mgrwt>
<rscale>  0 0.58807999E+02</rscale>
<asrwt>0</asrwt>
<pdfrwt beam="2">  1        2 0.45278891E+00 0.58807999E+02</pdfrwt>
<pdfrwt beam="1">  1       -2 0.45194993E-04 0.58807999E+02</pdfrwt>
<totfact> 0.33696629E+05</totfact>
</mgrwt>
</event>
<event>
 4    1  0.4696545E-002  0.6004383E+02  0.7818608E-02  0.1397648E+00
          2   -1    0    0    0  501  0.00000000000E+00  0.00000000000E+00  0.43740883155E+02  0.43740883229E+02  0.25500000000E-02 0.  1.
         -2   -1    0    0  501    0 -0.00000000000E+00 -0.00000000000E+00 -0.20605785262E+02  0.20605785420E+02  0.25500000000E-02 0.  1.
          2    1    1    2    0  502 -0.14716428930E+02  0.19244670093E+02  0.30569070147E+02  0.39005110737E+02  0.25500000000E-02 0. -1.
         -2    1    1    2  502    0  0.14716428930E+02 -0.19244670093E+02 -0.74339722543E+01  0.25341557912E+02  0.25500000000E-02 0. -1.
<mgrwt>
<rscale>  0 0.60043826E+02</rscale>
<asrwt>0</asrwt>
<pdfrwt beam="1">  1        2 0.67293667E-02 0.60043826E+02</pdfrwt>
<pdfrwt beam="2">  1       -2 0.31701208E-02 0.60043826E+02</pdfrwt>
<totfact> 0.30968166E+05</totfact>
</mgrwt>
</event>
<event>
 4    1  0.4696545E-002  0.4785504E+02  0.7818608E-02  0.1457267E+00
          2   -1    0    0    0  501  0.00000000000E+00  0.00000000000E+00  0.75012000398E+01  0.75012004733E+01  0.25500000000E-02 0. -1.
         -2   -1    0    0  501    0 -0.00000000000E+00 -0.00000000000E+00 -0.76324605220E+02  0.76324605262E+02  0.25500000000E-02 0. -1.
          2    1    1    2    0  502 -0.18788399348E+02 -0.10809473345E+02 -0.16662139003E+02  0.27339999025E+02  0.25500000000E-02 0.  1.
         -2    1    1    2  502    0  0.18788399348E+02  0.10809473345E+02 -0.52161266177E+02  0.56485806711E+02  0.25500000000E-02 0.  1.
<mgrwt>
<rscale>  0 0.47855037E+02</rscale>
<asrwt>0</asrwt>
<pdfrwt beam="1">  1        2 0.11540309E-02 0.47855037E+02</pdfrwt>
<pdfrwt beam="2">  1       -2 0.11742247E-01 0.47855037E+02</pdfrwt>
<totfact> 0.41796582E+05</totfact>
</mgrwt>
</event>
<event>
 4    1  0.4696545E-002  0.6556880E+02  0.7818608E-02  0.1375845E+00
          2   -1    0    0    0  501  0.00000000000E+00  0.00000000000E+00  0.44173686204E+02  0.44173686278E+02  0.25500000000E-02 0.  1.
         -2   -1    0    0  501    0 -0.00000000000E+00 -0.00000000000E+00 -0.24331605700E+02  0.24331605834E+02  0.25500000000E-02 0.  1.
          2    1    1    2    0  502  0.15988880338E+02 -0.27465518563E+02  0.18332546376E+02  0.36688980192E+02  0.25500000000E-02 0.  1.
         -2    1    1    2  502    0 -0.15988880338E+02  0.27465518563E+02  0.15095341278E+01  0.31816311920E+02  0.25500000000E-02 0.  1.
<mgrwt>
<rscale>  0 0.65568795E+02</rscale>
<asrwt>0</asrwt>
<pdfrwt beam="1">  1        2 0.67959516E-02 0.65568795E+02</pdfrwt>
<pdfrwt beam="2">  1       -2 0.37433240E-02 0.65568795E+02</pdfrwt>
<totfact> 0.24506866E+05</totfact>
</mgrwt>
</event>
<event>
 4    1  0.4696545E-002  0.4240040E+02  0.7818608E-02  0.1491255E+00
          2   -1    0    0    0  501  0.00000000000E+00  0.00000000000E+00  0.74750043193E+02  0.74750043237E+02  0.25500000000E-02 0. -1.
         -2   -1    0    0  501    0 -0.00000000000E+00 -0.00000000000E+00 -0.60126853718E+01  0.60126859125E+01  0.25500000000E-02 0. -1.
          2    1    1    2    0  502  0.20958780864E+02  0.31894419492E+01  0.34509593898E+02  0.40501297668E+02  0.25500000000E-02 0.  1.
         -2    1    1    2  502    0 -0.20958780864E+02 -0.31894419492E+01  0.34227763924E+02  0.40261431482E+02  0.25500000000E-02 0.  1.
<mgrwt>
<rscale>  0 0.42400402E+02</rscale>
<asrwt>0</asrwt>
<pdfrwt beam="1">  1        2 0.11500007E-01 0.42400402E+02</pdfrwt>
<pdfrwt beam="2">  1       -2 0.92502857E-03 0.42400402E+02</pdfrwt>
<totfact> 0.84489095E+05</totfact>
</mgrwt>
</event>
<event>
 4    1  0.4696545E-002  0.4006606E+02  0.7818608E-02  0.1507726E+00
         -2   -1    0    0  501    0 -0.00000000000E+00  0.00000000000E+00  0.12821818341E+01  0.12821843698E+01  0.25500000000E-02 0.  1.
          2   -1    0    0    0  501  0.00000000000E+00 -0.00000000000E+00 -0.31299922564E+03  0.31299922565E+03  0.25500000000E-02 0.  1.
          2    1    1    2    0  502  0.17330977111E+02  0.10039403268E+02 -0.15909204528E+03  0.16034784459E+03  0.25500000000E-02 0.  1.
         -2    1    1    2  502    0 -0.17330977111E+02 -0.10039403268E+02 -0.15262499852E+03  0.15393356543E+03  0.25500000000E-02 0.  1.
<mgrwt>
<rscale>  0 0.40066062E+02</rscale>
<asrwt>0</asrwt>
<pdfrwt beam="2">  1        2 0.48153666E-01 0.40066062E+02</pdfrwt>
<pdfrwt beam="1">  1       -2 0.19725919E-03 0.40066062E+02</pdfrwt>
<totfact> 0.14783816E+06</totfact>
</mgrwt>
</event>
<event>
 4    1  0.4696545E-002  0.5505447E+02  0.7818608E-02  0.1419841E+00
         -2   -1    0    0  501    0 -0.00000000000E+00  0.00000000000E+00  0.41823514544E+01  0.41823522317E+01  0.25500000000E-02 0. -1.
          2   -1    0    0    0  501  0.00000000000E+00 -0.00000000000E+00 -0.18117764252E+03  0.18117764254E+03  0.25500000000E-02 0. -1.
          2    1    1    2    0  502 -0.14150588518E+02  0.17024955227E+02 -0.33414912722E+02  0.40082972128E+02  0.25500000000E-02 0. -1.
         -2    1    1    2  502    0  0.14150588518E+02 -0.17024955227E+02 -0.14358037835E+03  0.14527702264E+03  0.25500000000E-02 0. -1.
<mgrwt>
<rscale>  0 0.55054469E+02</rscale>
<asrwt>0</asrwt>
<pdfrwt beam="2">  1        2 0.27873478E-01 0.55054469E+02</pdfrwt>
<pdfrwt beam="1">  1       -2 0.64343889E-03 0.55054469E+02</pdfrwt>
<totfact> 0.55896686E+05</totfact>
</mgrwt>
</event>
<event>
 4    1  0.4696545E-002  0.5247663E+02  0.7818608E-02  0.1432423E+00
          2   -1    0    0    0  501  0.00000000000E+00  0.00000000000E+00  0.58667587655E+03  0.58667587655E+03  0.25500000000E-02 0.  1.
         -2   -1    0    0  501    0 -0.00000000000E+00 -0.00000000000E+00 -0.11734733069E+01  0.11734760775E+01  0.25500000000E-02 0.  1.
          2    1    1    2    0  502 -0.24060093935E+02  0.57524734810E+00  0.17567421026E+03  0.17731510705E+03  0.25500000000E-02 0.  1.
         -2    1    1    2  502    0  0.24060093935E+02 -0.57524734810E+00  0.40982819298E+03  0.41053424558E+03  0.25500000000E-02 0.  1.
<mgrwt>
<rscale>  0 0.52476635E+02</rscale>
<asrwt>0</asrwt>
<pdfrwt beam="1">  1        2 0.90257900E-01 0.52476635E+02</pdfrwt>
<pdfrwt beam="2">  1       -2 0.18053442E-03 0.52476635E+02</pdfrwt>
<totfact> 0.93379328E+05</totfact>
</mgrwt>
</event>
<event>
 4    1  0.4696545E-002  0.4600094E+02  0.7818608E-02  0.1468188E+00
          2   -1    0    0    0  501  0.00000000000E+00  0.00000000000E+00  0.12120410314E+03  0.12120410316E+03  0.25500000000E-02 0.  1.
         -2   -1    0    0  501    0 -0.00000000000E+00 -0.00000000000E+00 -0.43647162503E+01  0.43647169952E+01  0.25500000000E-02 0.  1.
          2    1    1    2    0  502 -0.18381657240E+02 -0.13814637346E+02  0.56944561727E+02  0.61411828215E+02  0.25500000000E-02 0. -1.
         -2    1    1    2  502    0  0.18381657240E+02  0.13814637346E+02  0.59894825161E+02  0.64156991945E+02  0.25500000000E-02 0. -1.
<mgrwt>
<rscale>  0 0.46000938E+02</rscale>
<asrwt>0</asrwt>
<pdfrwt beam="1">  1        2 0.18646783E-01 0.46000938E+02</pdfrwt>
<pdfrwt beam="2">  1       -2 0.67149494E-03 0.46000938E+02</pdfrwt>
<totfact> 0.77755468E+05</totfact>
</mgrwt>
</event>
<event>
 4    1  0.4696545E-002  0.4484785E+02  0.7818608E-02  0.1475294E+00
         -2   -1    0    0  501    0 -0.00000000000E+00  0.00000000000E+00  0.25611148237E+01  0.25611160932E+01  0.25500000000E-02 0. -1.
          2   -1    0    0    0  501  0.00000000000E+00 -0.00000000000E+00 -0.19633335487E+03  0.19633335489E+03  0.25500000000E-02 0. -1.
          2    1    1    2    0  502  0.46651562481E+01 -0.21913769170E+02 -0.92784343216E+02  0.95451093837E+02  0.25500000000E-02 0.  1.
         -2    1    1    2  502    0 -0.46651562481E+01  0.21913769170E+02 -0.10098789683E+03  0.10344337714E+03  0.25500000000E-02 0.  1.
<mgrwt>
<rscale>  0 0.44847849E+02</rscale>
<asrwt>0</asrwt>
<pdfrwt beam="2">  1        2 0.30205120E-01 0.44847849E+02</pdfrwt>
<pdfrwt beam="1">  1       -2 0.39401792E-03 0.44847849E+02</pdfrwt>
<totfact> 0.95893718E+05</totfact>
</mgrwt>
</event>
<event>
 4    1  0.4696545E-002  0.5628621E+02  0.7818608E-02  0.1414112E+00
         -2   -1    0    0  501    0 -0.00000000000E+00  0.00000000000E+00  0.63707135974E+00  0.63707646315E+00  0.25500000000E-02 0. -1.
          2   -1    0    0    0  501  0.00000000000E+00 -0.00000000000E+00 -0.12432378272E+04  0.12432378272E+04  0.25500000000E-02 0. -1.
          2    1    1    2    0  502  0.56680620715E+01  0.20166109003E+02 -0.20595740809E+03  0.20701993342E+03  0.25500000000E-02 0.  1.
         -2    1    1    2  502    0 -0.56680620715E+01 -0.20166109003E+02 -0.10366433477E+04  0.10368549702E+04  0.25500000000E-02 0.  1.
<mgrwt>
<rscale>  0 0.56286211E+02</rscale>
<asrwt>0</asrwt>
<pdfrwt beam="2">  1        2 0.19126542E+00 0.56286211E+02</pdfrwt>
<pdfrwt beam="1">  1       -2 0.98012366E-04 0.56286211E+02</pdfrwt>
<totfact> 0.85462647E+05</totfact>
</mgrwt>
</event>
<event>
 4    1  0.4696545E-002  0.1080327E+03  0.7818608E-02  0.1264257E+00
         -2   -1    0    0  501    0 -0.00000000000E+00  0.00000000000E+00  0.16078365308E+01  0.16078385529E+01  0.25500000000E-02 0. -1.
          2   -1    0    0    0  501  0.00000000000E+00 -0.00000000000E+00 -0.18147137140E+04  0.18147137140E+04  0.25500000000E-02 0. -1.
          2    1    1    2    0  502 -0.33906286024E+02 -0.37863317950E+02 -0.12140452080E+04  0.12151086511E+04  0.25500000000E-02 0. -1.
         -2    1    1    2  502    0  0.33906286024E+02  0.37863317950E+02 -0.59906066954E+03  0.60121290145E+03  0.25500000000E-02 0. -1.
<mgrwt>
<rscale>  0 0.10803268E+03</rscale>
<asrwt>0</asrwt>
<pdfrwt beam="2">  1        2 0.27918509E+00 0.10803268E+03</pdfrwt>
<pdfrwt beam="1">  1       -2 0.24736107E-03 0.10803268E+03</pdfrwt>
<totfact> 0.13569715E+05</totfact>
</mgrwt>
</event>
<event>
 4    1  0.4696545E-002  0.8415052E+02  0.7818608E-02  0.1317669E+00
         -2   -1    0    0  501    0 -0.00000000000E+00  0.00000000000E+00  0.17977217507E+01  0.17977235592E+01  0.25500000000E-02 0.  1.
          2   -1    0    0    0  501  0.00000000000E+00 -0.00000000000E+00 -0.98476115306E+03  0.98476115306E+03  0.25500000000E-02 0.  1.
          2    1    1    2    0  502  0.31321245681E+02  0.13733335106E+02 -0.77882161476E+03  0.77957214711E+03  0.25500000000E-02 0. -1.
         -2    1    1    2  502    0 -0.31321245681E+02 -0.13733335106E+02 -0.20414181654E+03  0.20698672950E+03  0.25500000000E-02 0. -1.
<mgrwt>
<rscale>  0 0.84150518E+02</rscale>
<asrwt>0</asrwt>
<pdfrwt beam="2">  1        2 0.15150128E+00 0.84150518E+02</pdfrwt>
<pdfrwt beam="1">  1       -2 0.27657350E-03 0.84150518E+02</pdfrwt>
<totfact> 0.30829965E+05</totfact>
</mgrwt>
</event>
<event>
 4    1  0.4696545E-002  0.4942160E+02  0.7818608E-02  0.1448486E+00
          2   -1    0    0    0  501  0.00000000000E+00  0.00000000000E+00  0.10865921439E+02  0.10865921738E+02  0.25500000000E-02 0. -1.
         -2   -1    0    0  501    0 -0.00000000000E+00 -0.00000000000E+00 -0.56196216051E+02  0.56196216109E+02  0.25500000000E-02 0. -1.
          2    1    1    2    0  502  0.50247160444E+01 -0.21420525537E+02 -0.37929181292E+02  0.43848711334E+02  0.25500000000E-02 0.  1.
         -2    1    1    2  502    0 -0.50247160444E+01  0.21420525537E+02 -0.74011133200E+01  0.23213426514E+02  0.25500000000E-02 0.  1.
<mgrwt>
<rscale>  0 0.49421602E+02</rscale>
<asrwt>0</asrwt>
<pdfrwt beam="1">  1        2 0.16716803E-02 0.49421602E+02</pdfrwt>
<pdfrwt beam="2">  1       -2 0.86455716E-02 0.49421602E+02</pdfrwt>
<totfact> 0.41060849E+05</totfact>
</mgrwt>
</event>
<event>
 4    1  0.4696545E-002  0.5890381E+02  0.7818608E-02  0.1402490E+00
         -2   -1    0    0  501    0 -0.00000000000E+00  0.00000000000E+00  0.45056420703E+02  0.45056420775E+02  0.25500000000E-02 0.  1.
          2   -1    0    0    0  501  0.00000000000E+00 -0.00000000000E+00 -0.19251747359E+02  0.19251747528E+02  0.25500000000E-02 0.  1.
          2    1    1    2    0  502  0.34160533558E+01 -0.23237521294E+02 -0.64977356912E+01  0.24369497164E+02  0.25500000000E-02 0.  1.
         -2    1    1    2  502    0 -0.34160533558E+01  0.23237521294E+02  0.32302409035E+02  0.39938671139E+02  0.25500000000E-02 0.  1.
<mgrwt>
<rscale>  0 0.58903814E+02</rscale>
<asrwt>0</asrwt>
<pdfrwt beam="2">  1        2 0.29618074E-02 0.58903814E+02</pdfrwt>
<pdfrwt beam="1">  1       -2 0.69317569E-02 0.58903814E+02</pdfrwt>
<totfact> 0.28026336E+05</totfact>
</mgrwt>
</event>
<event>
 4    1  0.4696545E-002  0.4676295E+02  0.7818608E-02  0.1463627E+00
         -2   -1    0    0  501    0 -0.00000000000E+00  0.00000000000E+00  0.11354183001E+02  0.11354183287E+02  0.25500000000E-02 0. -1.
          2   -1    0    0    0  501  0.00000000000E+00 -0.00000000000E+00 -0.48149072474E+02  0.48149072542E+02  0.25500000000E-02 0. -1.
          2    1    1    2    0  502  0.22359984747E+02 -0.44889558703E+01 -0.24956860748E+02  0.33807758689E+02  0.25500000000E-02 0. -1.
         -2    1    1    2  502    0 -0.22359984747E+02  0.44889558703E+01 -0.11838028726E+02  0.25695497140E+02  0.25500000000E-02 0. -1.
<mgrwt>
<rscale>  0 0.46762951E+02</rscale>
<asrwt>0</asrwt>
<pdfrwt beam="2">  1        2 0.74075495E-02 0.46762951E+02</pdfrwt>
<pdfrwt beam="1">  1       -2 0.17467974E-02 0.46762951E+02</pdfrwt>
<totfact> 0.60464170E+05</totfact>
</mgrwt>
</event>
<event>
 4    1  0.4696545E-002  0.5401993E+02  0.7818608E-02  0.1424791E+00
         -2   -1    0    0  501    0 -0.00000000000E+00  0.00000000000E+00  0.67193283634E+00  0.67193767497E+00  0.25500000000E-02 0. -1.
          2   -1    0    0    0  501  0.00000000000E+00 -0.00000000000E+00 -0.10857271252E+04  0.10857271252E+04  0.25500000000E-02 0. -1.
          2    1    1    2    0  502  0.16415180959E+02 -0.19401414369E+02 -0.35857413062E+03  0.35947361545E+03  0.25500000000E-02 0.  1.
         -2    1    1    2  502    0 -0.16415180959E+02  0.19401414369E+02 -0.72648106173E+03  0.72692544742E+03  0.25500000000E-02 0.  1.
<mgrwt>
<rscale>  0 0.54019935E+02</rscale>
<asrwt>0</asrwt>
<pdfrwt beam="2">  1        2 0.16703354E+00 0.54019935E+02</pdfrwt>
<pdfrwt beam="1">  1       -2 0.10337552E-03 0.54019935E+02</pdfrwt>
<totfact> 0.95688365E+05</totfact>
</mgrwt>
</event>
<event>
 4    1  0.4696545E-002  0.8622536E+02  0.7818608E-02  0.1312259E+00
         -2   -1    0    0  501    0 -0.00000000000E+00  0.00000000000E+00  0.20974534027E+03  0.20974534029E+03  0.25500000000E-02 0. -1.
          2   -1    0    0    0  501  0.00000000000E+00 -0.00000000000E+00 -0.88617132796E+01  0.88617136464E+01  0.25500000000E-02 0. -1.
          2    1    1    2    0  502 -0.22087225236E+02 -0.20851942858E+02  0.17800928405E+03  0.18058226450E+03  0.25500000000E-02 0.  1.
         -2    1    1    2  502    0  0.22087225236E+02  0.20851942858E+02  0.22874342945E+02  0.38024789431E+02  0.25500000000E-02 0.  1.
<mgrwt>
<rscale>  0 0.86225358E+02</rscale>
<asrwt>0</asrwt>
<pdfrwt beam="2">  1        2 0.13633405E-02 0.86225358E+02</pdfrwt>
<pdfrwt beam="1">  1       -2 0.32268514E-01 0.86225358E+02</pdfrwt>
<totfact> 0.70378510E+04</totfact>
</mgrwt>
</event>
<event>
 4    1  0.4696545E-002  0.4917818E+02  0.7818608E-02  0.1449825E+00
         -2   -1    0    0  501    0 -0.00000000000E+00  0.00000000000E+00  0.29197838441E+01  0.29197849577E+01  0.25500000000E-02 0. -1.
          2   -1    0    0    0  501  0.00000000000E+00 -0.00000000000E+00 -0.20707808977E+03  0.20707808978E+03  0.25500000000E-02 0. -1.
          2    1    1    2    0  502 -0.14298348052E+02  0.19941233888E+02 -0.95290018740E+02  0.98398593710E+02  0.25500000000E-02 0.  1.
         -2    1    1    2  502    0  0.14298348052E+02 -0.19941233888E+02 -0.10886828718E+03  0.11159928103E+03  0.25500000000E-02 0.  1.
<mgrwt>
<rscale>  0 0.49178181E+02</rscale>
<asrwt>0</asrwt>
<pdfrwt beam="2">  1        2 0.31858156E-01 0.49178181E+02</pdfrwt>
<pdfrwt beam="1">  1       -2 0.44919776E-03 0.49178181E+02</pdfrwt>
<totfact> 0.77625067E+05</totfact>
</mgrwt>
</event>
<event>
 4    1  0.4696545E-002  0.4828493E+02  0.7818608E-02  0.1454818E+00
          2   -1    0    0    0  501  0.00000000000E+00  0.00000000000E+00  0.47305627266E+03  0.47305627267E+03  0.25500000000E-02 0. -1.
         -2   -1    0    0  501    0 -0.00000000000E+00 -0.00000000000E+00 -0.12321112470E+01  0.12321138857E+01  0.25500000000E-02 0. -1.
          2    1    1    2    0  502 -0.45383689300E+01  0.23462263498E+02  0.20219291786E+03  0.20360022260E+03  0.25500000000E-02 0.  1.
         -2    1    1    2  502    0  0.45383689300E+01 -0.23462263498E+02  0.26963124355E+03  0.27068816396E+03  0.25500000000E-02 0.  1.
<mgrwt>
<rscale>  0 0.48284929E+02</rscale>
<asrwt>0</asrwt>
<pdfrwt beam="1">  1        2 0.72777715E-01 0.48284929E+02</pdfrwt>
<pdfrwt beam="2">  1       -2 0.18955623E-03 0.48284929E+02</pdfrwt>
<totfact> 0.10760110E+06</totfact>
</mgrwt>
</event>
<event>
 4    1  0.4696545E-002  0.4700032E+02  0.7818608E-02  0.1462227E+00
          2   -1    0    0    0  501  0.00000000000E+00  0.00000000000E+00  0.16345630787E+02  0.16345630986E+02  0.25500000000E-02 0.  1.
         -2   -1    0    0  501    0 -0.00000000000E+00 -0.00000000000E+00 -0.33786248740E+02  0.33786248836E+02  0.25500000000E-02 0.  1.
          2    1    1    2    0  502  0.21286544897E+02 -0.12552594934E+01 -0.19255924540E+02  0.28731225286E+02  0.25500000000E-02 0. -1.
         -2    1    1    2  502    0 -0.21286544897E+02  0.12552594934E+01  0.18153065869E+01  0.21400654536E+02  0.25500000000E-02 0. -1.
<mgrwt>
<rscale>  0 0.47000321E+02</rscale>
<asrwt>0</asrwt>
<pdfrwt beam="1">  1        2 0.25147124E-02 0.47000321E+02</pdfrwt>
<pdfrwt beam="2">  1       -2 0.51978844E-02 0.47000321E+02</pdfrwt>
<totfact> 0.50333004E+05</totfact>
</mgrwt>
</event>
<event>
 4    1  0.4696545E-002  0.5457258E+02  0.7818608E-02  0.1422131E+00
         -2   -1    0    0  501    0 -0.00000000000E+00  0.00000000000E+00  0.53624600935E+00  0.53625207230E+00  0.25500000000E-02 0.  1.
          2   -1    0    0    0  501  0.00000000000E+00 -0.00000000000E+00 -0.13884251340E+04  0.13884251340E+04  0.25500000000E-02 0.  1.
          2    1    1    2    0  502  0.18945387469E+02  0.87196272439E+01 -0.11417645156E+04  0.11419549767E+04  0.25500000000E-02 0.  1.
         -2    1    1    2  502    0 -0.18945387469E+02 -0.87196272439E+01 -0.24612437233E+03  0.24700640937E+03  0.25500000000E-02 0.  1.
<mgrwt>
<rscale>  0 0.54572581E+02</rscale>
<asrwt>0</asrwt>
<pdfrwt beam="2">  1        2 0.21360099E+00 0.54572581E+02</pdfrwt>
<pdfrwt beam="1">  1       -2 0.82500964E-04 0.54572581E+02</pdfrwt>
<totfact> 0.90311286E+05</totfact>
</mgrwt>
</event>
<event>
 4    1  0.4696545E-002  0.7193928E+02  0.7818608E-02  0.1353620E+00
          2   -1    0    0    0  501  0.00000000000E+00  0.00000000000E+00  0.36271109750E+03  0.36271109751E+03  0.25500000000E-02 0. -1.
         -2   -1    0    0  501    0 -0.00000000000E+00 -0.00000000000E+00 -0.35670669737E+01  0.35670678852E+01  0.25500000000E-02 0. -1.
          2    1    1    2    0  502 -0.20240648423E+02 -0.29642049370E+02  0.19149088884E+03  0.19482580798E+03  0.25500000000E-02 0. -1.
         -2    1    1    2  502    0  0.20240648423E+02  0.29642049370E+02  0.16765314168E+03  0.17145235741E+03  0.25500000000E-02 0. -1.
<mgrwt>
<rscale>  0 0.71939278E+02</rscale>
<asrwt>0</asrwt>
<pdfrwt beam="1">  1        2 0.55801735E-01 0.71939278E+02</pdfrwt>
<pdfrwt beam="2">  1       -2 0.54877933E-03 0.71939278E+02</pdfrwt>
<totfact> 0.35889638E+05</totfact>
</mgrwt>
</event>
<event>
 4    1  0.4696545E-002  0.5520264E+02  0.7818608E-02  0.1419143E+00
          2   -1    0    0    0  501  0.00000000000E+00  0.00000000000E+00  0.12838886538E+04  0.12838886538E+04  0.25500000000E-02 0.  1.
         -2   -1    0    0  501    0 -0.00000000000E+00 -0.00000000000E+00 -0.59337643798E+00  0.59338191720E+00  0.25500000000E-02 0.  1.
          2    1    1    2    0  502 -0.22084726857E+02 -0.14435318137E+02  0.45301605656E+03  0.45378371619E+03  0.25500000000E-02 0.  1.
         -2    1    1    2  502    0  0.22084726857E+02  0.14435318137E+02  0.83027922079E+03  0.83069831952E+03  0.25500000000E-02 0.  1.
<mgrwt>
<rscale>  0 0.55202638E+02</rscale>
<asrwt>0</asrwt>
<pdfrwt beam="1">  1        2 0.19752235E+00 0.55202638E+02</pdfrwt>
<pdfrwt beam="2">  1       -2 0.91288633E-04 0.55202638E+02</pdfrwt>
<totfact> 0.89266197E+05</totfact>
</mgrwt>
</event>
<event>
 4    1  0.4696545E-002  0.4870467E+02  0.7818608E-02  0.1452456E+00
         -2   -1    0    0  501    0 -0.00000000000E+00  0.00000000000E+00  0.29080466039E+00  0.29081584036E+00  0.25500000000E-02 0. -1.
          2   -1    0    0    0  501  0.00000000000E+00 -0.00000000000E+00 -0.20392550081E+04  0.20392550082E+04  0.25500000000E-02 0. -1.
          2    1    1    2    0  502 -0.13039783292E+02 -0.16830469853E+02 -0.52446937254E+03  0.52490134635E+03  0.25500000000E-02 0. -1.
         -2    1    1    2  502    0  0.13039783292E+02  0.16830469853E+02 -0.15144948310E+04  0.15146444776E+04  0.25500000000E-02 0. -1.
<mgrwt>
<rscale>  0 0.48704672E+02</rscale>
<asrwt>0</asrwt>
<pdfrwt beam="2">  1        2 0.31372009E+00 0.48704672E+02</pdfrwt>
<pdfrwt beam="1">  1       -2 0.44741672E-04 0.48704672E+02</pdfrwt>
<totfact> 0.96539612E+05</totfact>
</mgrwt>
</event>
<event>
 4    1  0.4696545E-002  0.7729469E+02  0.7818608E-02  0.1336909E+00
          2   -1    0    0    0  501  0.00000000000E+00  0.00000000000E+00  0.51277837550E+03  0.51277837551E+03  0.25500000000E-02 0. -1.
         -2   -1    0    0  501    0 -0.00000000000E+00 -0.00000000000E+00 -0.29127922347E+01  0.29127933509E+01  0.25500000000E-02 0. -1.
          2    1    1    2    0  502  0.25464633496E+02 -0.92617610891E+01  0.71079118976E+02  0.76068843415E+02  0.25500000000E-02 0.  1.
         -2    1    1    2  502    0 -0.25464633496E+02  0.92617610891E+01  0.43878646429E+03  0.43962232544E+03  0.25500000000E-02 0.  1.
<mgrwt>
<rscale>  0 0.77294687E+02</rscale>
<asrwt>0</asrwt>
<pdfrwt beam="1">  1        2 0.78889002E-01 0.77294687E+02</pdfrwt>
<pdfrwt beam="2">  1       -2 0.44812185E-03 0.77294687E+02</pdfrwt>
<totfact> 0.33506102E+05</totfact>
</mgrwt>
</event>
<event>
 4    1  0.4696545E-002  0.5962950E+02  0.7818608E-02  0.1399393E+00
         -2   -1    0    0  501    0 -0.00000000000E+00  0.00000000000E+00  0.28864870518E+02  0.28864870630E+02  0.25500000000E-02 0. -1.
          2   -1    0    0    0  501  0.00000000000E+00 -0.00000000000E+00 -0.30795886966E+02  0.30795887072E+02  0.25500000000E-02 0. -1.
          2    1    1    2    0  502 -0.45891485792E+00 -0.29714517703E+02  0.14349419415E+01  0.29752684418E+02  0.25500000000E-02 0. -1.
         -2    1    1    2  502    0  0.45891485792E+00  0.29714517703E+02 -0.33659583897E+01  0.29908073284E+02  0.25500000000E-02 0. -1.
<mgrwt>
<rscale>  0 0.59629499E+02</rscale>
<asrwt>0</asrwt>
<pdfrwt beam="2">  1        2 0.47378288E-02 0.59629499E+02</pdfrwt>
<pdfrwt beam="1">  1       -2 0.44407493E-02 0.59629499E+02</pdfrwt>
<totfact> 0.29524787E+05</totfact>
</mgrwt>
</event>
<event>
 4    1  0.4696545E-002  0.6164547E+02  0.7818608E-02  0.1391053E+00
          2   -1    0    0    0  501  0.00000000000E+00  0.00000000000E+00  0.63505509397E+02  0.63505509448E+02  0.25500000000E-02 0.  1.
         -2   -1    0    0  501    0 -0.00000000000E+00 -0.00000000000E+00 -0.14959977993E+02  0.14959978210E+02  0.25500000000E-02 0.  1.
          2    1    1    2    0  502 -0.29429794181E+02  0.91607047843E+01  0.24398316513E+02  0.39310420410E+02  0.25500000000E-02 0. -1.
         -2    1    1    2  502    0  0.29429794181E+02 -0.91607047843E+01  0.24147214891E+02  0.39155067248E+02  0.25500000000E-02 0. -1.
<mgrwt>
<rscale>  0 0.61645471E+02</rscale>
<asrwt>0</asrwt>
<pdfrwt beam="1">  1        2 0.97700781E-02 0.61645471E+02</pdfrwt>
<pdfrwt beam="2">  1       -2 0.23015352E-02 0.61645471E+02</pdfrwt>
<totfact> 0.31244266E+05</totfact>
</mgrwt>
</event>
<event>
 4    1  0.4696545E-002  0.5217453E+02  0.7818608E-02  0.1433954E+00
         -2   -1    0    0  501    0 -0.00000000000E+00  0.00000000000E+00  0.88332966973E+03  0.88332966974E+03  0.25500000000E-02 0. -1.
          2   -1    0    0    0  501  0.00000000000E+00 -0.00000000000E+00 -0.77042968878E+00  0.77043390881E+00  0.25500000000E-02 0. -1.
          2    1    1    2    0  502  0.23169303212E+02 -0.29694967592E+01  0.63809824776E+03  0.63852565205E+03  0.25500000000E-02 0. -1.
         -2    1    1    2  502    0 -0.23169303212E+02  0.29694967592E+01  0.24446099228E+03  0.24557445160E+03  0.25500000000E-02 0. -1.
<mgrwt>
<rscale>  0 0.52174525E+02</rscale>
<asrwt>0</asrwt>
<pdfrwt beam="2">  1        2 0.11852812E-03 0.52174525E+02</pdfrwt>
<pdfrwt beam="1">  1       -2 0.13589670E+00 0.52174525E+02</pdfrwt>
<totfact> 0.88396807E+04</totfact>
</mgrwt>
</event>
<event>
 4    1  0.4696545E-002  0.4404688E+02  0.7818608E-02  0.1480381E+00
         -2   -1    0    0  501    0 -0.00000000000E+00  0.00000000000E+00  0.70887306724E+01  0.70887311311E+01  0.25500000000E-02 0.  1.
          2   -1    0    0    0  501  0.00000000000E+00 -0.00000000000E+00 -0.68422954518E+02  0.68422954565E+02  0.25500000000E-02 0.  1.
          2    1    1    2    0  502 -0.29258895891E+00 -0.20526515526E+02 -0.16994343577E+02  0.26650162627E+02  0.25500000000E-02 0.  1.
         -2    1    1    2  502    0  0.29258895891E+00  0.20526515526E+02 -0.44339880269E+02  0.48861523070E+02  0.25500000000E-02 0.  1.
<mgrwt>
<rscale>  0 0.44046880E+02</rscale>
<asrwt>0</asrwt>
<pdfrwt beam="2">  1        2 0.10526608E-01 0.44046880E+02</pdfrwt>
<pdfrwt beam="1">  1       -2 0.10905740E-02 0.44046880E+02</pdfrwt>
<totfact> 0.75365127E+05</totfact>
</mgrwt>
</event>
<event>
 4    1  0.4696545E-002  0.7625210E+02  0.7818608E-02  0.1340037E+00
          2   -1    0    0    0  501  0.00000000000E+00  0.00000000000E+00  0.23458039896E+04  0.23458039896E+04  0.25500000000E-02 0.  1.
         -2   -1    0    0  501    0 -0.00000000000E+00 -0.00000000000E+00 -0.61965520472E+00  0.61966045156E+00  0.25500000000E-02 0.  1.
          2    1    1    2    0  502  0.28116086042E+02 -0.25445090206E+02  0.12942440120E+04  0.12947994167E+04  0.25500000000E-02 0. -1.
         -2    1    1    2  502    0 -0.28116086042E+02  0.25445090206E+02  0.10509403224E+04  0.10516242333E+04  0.25500000000E-02 0. -1.
<mgrwt>
<rscale>  0 0.76252103E+02</rscale>
<asrwt>0</asrwt>
<pdfrwt beam="1">  1        2 0.36090187E+00 0.76252103E+02</pdfrwt>
<pdfrwt beam="2">  1       -2 0.95329610E-04 0.76252103E+02</pdfrwt>
<totfact> 0.26184217E+05</totfact>
</mgrwt>
</event>
<event>
 4    1  0.4696545E-002  0.4844770E+02  0.7818608E-02  0.1453899E+00
         -2   -1    0    0  501    0 -0.00000000000E+00  0.00000000000E+00  0.20869899367E+03  0.20869899368E+03  0.25500000000E-02 0. -1.
          2   -1    0    0    0  501  0.00000000000E+00 -0.00000000000E+00 -0.28116802918E+01  0.28116814482E+01  0.25500000000E-02 0. -1.
          2    1    1    2    0  502  0.22098522867E+02 -0.44678844305E+01  0.64265884001E+02  0.68105877552E+02  0.25500000000E-02 0.  1.
         -2    1    1    2  502    0 -0.22098522867E+02  0.44678844305E+01  0.14162142937E+03  0.14340479758E+03  0.25500000000E-02 0.  1.
<mgrwt>
<rscale>  0 0.48447703E+02</rscale>
<asrwt>0</asrwt>
<pdfrwt beam="2">  1        2 0.43256633E-03 0.48447703E+02</pdfrwt>
<pdfrwt beam="1">  1       -2 0.32107534E-01 0.48447703E+02</pdfrwt>
<totfact> 0.29924497E+05</totfact>
</mgrwt>
</event>
<event>
 4    1  0.4696545E-002  0.1333761E+03  0.7818608E-02  0.1222530E+00
         -2   -1    0    0  501    0 -0.00000000000E+00  0.00000000000E+00  0.40729997356E+01  0.40730005338E+01  0.25500000000E-02 0.  1.
          2   -1    0    0    0  501  0.00000000000E+00 -0.00000000000E+00 -0.10918967976E+04  0.10918967976E+04  0.25500000000E-02 0.  1.
          2    1    1    2    0  502 -0.32611151419E+02 -0.52029819830E+02 -0.33015470444E+03  0.33581649486E+03  0.25500000000E-02 0. -1.
         -2    1    1    2  502    0  0.32611151419E+02  0.52029819830E+02 -0.75766909344E+03  0.76015330329E+03  0.25500000000E-02 0. -1.
<mgrwt>
<rscale>  0 0.13337610E+03</rscale>
<asrwt>0</asrwt>
<pdfrwt beam="2">  1        2 0.16798389E+00 0.13337610E+03</pdfrwt>
<pdfrwt beam="1">  1       -2 0.62661628E-03 0.13337610E+03</pdfrwt>
<totfact> 0.90236394E+04</totfact>
</mgrwt>
</event>
<event>
 4    1  0.4696545E-002  0.4047424E+02  0.7818608E-02  0.1504750E+00
         -2   -1    0    0  501    0 -0.00000000000E+00  0.00000000000E+00  0.36713895015E+02  0.36713895103E+02  0.25500000000E-02 0. -1.
          2   -1    0    0    0  501  0.00000000000E+00 -0.00000000000E+00 -0.11154933836E+02  0.11154934128E+02  0.25500000000E-02 0. -1.
          2    1    1    2    0  502 -0.14972419678E+01 -0.20095880325E+02  0.10581145575E+02  0.22760641198E+02  0.25500000000E-02 0.  1.
         -2    1    1    2  502    0  0.14972419678E+01  0.20095880325E+02  0.14977815604E+02  0.25108188033E+02  0.25500000000E-02 0.  1.
<mgrwt>
<rscale>  0 0.40474243E+02</rscale>
<asrwt>0</asrwt>
<pdfrwt beam="2">  1        2 0.17161437E-02 0.40474243E+02</pdfrwt>
<pdfrwt beam="1">  1       -2 0.56482916E-02 0.40474243E+02</pdfrwt>
<totfact> 0.70729535E+05</totfact>
</mgrwt>
</event>
<event>
 4    1  0.4696545E-002  0.4863572E+02  0.7818608E-02  0.1452842E+00
         -2   -1    0    0  501    0 -0.00000000000E+00  0.00000000000E+00  0.24593231663E+03  0.24593231664E+03  0.25500000000E-02 0. -1.
          2   -1    0    0    0  501  0.00000000000E+00 -0.00000000000E+00 -0.24045565684E+01  0.24045579205E+01  0.25500000000E-02 0. -1.
          2    1    1    2    0  502  0.54010935681E+00 -0.23785239698E+02  0.14746160901E+03  0.14936852240E+03  0.25500000000E-02 0.  1.
         -2    1    1    2  502    0 -0.54010935681E+00  0.23785239698E+02  0.96066151051E+02  0.98968352163E+02  0.25500000000E-02 0.  1.
<mgrwt>
<rscale>  0 0.48635721E+02</rscale>
<asrwt>0</asrwt>
<pdfrwt beam="2">  1        2 0.36993163E-03 0.48635721E+02</pdfrwt>
<pdfrwt beam="1">  1       -2 0.37835768E-01 0.48635721E+02</pdfrwt>
<totfact> 0.27528193E+05</totfact>
</mgrwt>
</event>
<event>
 4    1  0.4696545E-002  0.7672331E+02  0.7818608E-02  0.1338616E+00
          2   -1    0    0    0  501  0.00000000000E+00  0.00000000000E+00  0.16466519255E+04  0.16466519255E+04  0.25500000000E-02 0.  1.
         -2   -1    0    0  501    0 -0.00000000000E+00 -0.00000000000E+00 -0.89370050701E+00  0.89370414497E+00  0.25500000000E-02 0.  1.
          2    1    1    2    0  502  0.58884178482E+01 -0.28882395321E+02  0.29567489981E+03  0.29714056036E+03  0.25500000000E-02 0.  1.
         -2    1    1    2  502    0 -0.58884178482E+01  0.28882395321E+02  0.13500833252E+04  0.13504050693E+04  0.25500000000E-02 0.  1.
<mgrwt>
<rscale>  0 0.76723312E+02</rscale>
<asrwt>0</asrwt>
<pdfrwt beam="1">  1        2 0.25333162E+00 0.76723312E+02</pdfrwt>
<pdfrwt beam="2">  1       -2 0.13749236E-03 0.76723312E+02</pdfrwt>
<totfact> 0.35530170E+05</totfact>
</mgrwt>
</event>
<event>
 4    1  0.4696545E-002  0.4335281E+02  0.7818608E-02  0.1484895E+00
          2   -1    0    0    0  501  0.00000000000E+00  0.00000000000E+00  0.15454286548E+04  0.15454286548E+04  0.25500000000E-02 0. -1.
         -2   -1    0    0  501    0 -0.00000000000E+00 -0.00000000000E+00 -0.30403103069E+00  0.30404172431E+00  0.25500000000E-02 0. -1.
          2    1    1    2    0  502  0.21195706878E+02 -0.17611096356E+01  0.62337792542E+03  0.62374064915E+03  0.25500000000E-02 0. -1.
         -2    1    1    2  502    0 -0.21195706878E+02  0.17611096356E+01  0.92174669833E+03  0.92199204735E+03  0.25500000000E-02 0. -1.
<mgrwt>
<rscale>  0 0.43352810E+02</rscale>
<asrwt>0</asrwt>
<pdfrwt beam="1">  1        2 0.23775299E+00 0.43352810E+02</pdfrwt>
<pdfrwt beam="2">  1       -2 0.46775863E-04 0.43352810E+02</pdfrwt>
<totfact> 0.15389997E+06</totfact>
</mgrwt>
</event>
<event>
 4    1  0.4696545E-002  0.6374998E+02  0.7818608E-02  0.1382736E+00
          2   -1    0    0    0  501  0.00000000000E+00  0.00000000000E+00  0.38769457780E+02  0.38769457864E+02  0.25500000000E-02 0. -1.
         -2   -1    0    0  501    0 -0.00000000000E+00 -0.00000000000E+00 -0.26206579575E+02  0.26206579699E+02  0.25500000000E-02 0. -1.
          2    1    1    2    0  502  0.17432544263E+02  0.24201259959E+02 -0.51784811601E+01  0.30272285291E+02  0.25500000000E-02 0. -1.
         -2    1    1    2  502    0 -0.17432544263E+02 -0.24201259959E+02  0.17741359365E+02  0.34703752272E+02  0.25500000000E-02 0. -1.
<mgrwt>
<rscale>  0 0.63749977E+02</rscale>
<asrwt>0</asrwt>
<pdfrwt beam="1">  1        2 0.59645319E-02 0.63749977E+02</pdfrwt>
<pdfrwt beam="2">  1       -2 0.40317815E-02 0.63749977E+02</pdfrwt>
<totfact> 0.25753712E+05</totfact>
</mgrwt>
</event>
<event>
 4    1  0.4696545E-002  0.8490195E+02  0.7818608E-02  0.1315689E+00
          2   -1    0    0    0  501  0.00000000000E+00  0.00000000000E+00  0.69124247270E+03  0.69124247270E+03  0.25500000000E-02 0. -1.
         -2   -1    0    0  501    0 -0.00000000000E+00 -0.00000000000E+00 -0.26070227591E+01  0.26070240062E+01  0.25500000000E-02 0. -1.
          2    1    1    2    0  502 -0.32256614332E+02 -0.25522509231E+02  0.25852829963E+03  0.26178000184E+03  0.25500000000E-02 0. -1.
         -2    1    1    2  502    0  0.32256614332E+02  0.25522509231E+02  0.43010715031E+03  0.43206949488E+03  0.25500000000E-02 0. -1.
<mgrwt>
<rscale>  0 0.84901950E+02</rscale>
<asrwt>0</asrwt>
<pdfrwt beam="1">  1        2 0.10634507E+00 0.84901950E+02</pdfrwt>
<pdfrwt beam="2">  1       -2 0.40108024E-03 0.84901950E+02</pdfrwt>
<totfact> 0.28516957E+05</totfact>
</mgrwt>
</event>
<event>
 4    1  0.4696545E-002  0.5950728E+02  0.7818608E-02  0.1399911E+00
          2   -1    0    0    0  501  0.00000000000E+00  0.00000000000E+00  0.19637003517E+04  0.19637003517E+04  0.25500000000E-02 0.  1.
         -2   -1    0    0  501    0 -0.00000000000E+00 -0.00000000000E+00 -0.45081820665E+00  0.45082541848E+00  0.25500000000E-02 0.  1.
          2    1    1    2    0  502 -0.28990248291E+01  0.29557958472E+02  0.10406849515E+04  0.10411086617E+04  0.25500000000E-02 0. -1.
         -2    1    1    2  502    0  0.28990248291E+01 -0.29557958472E+02  0.92256458200E+03  0.92304251539E+03  0.25500000000E-02 0. -1.
<mgrwt>
<rscale>  0 0.59507275E+02</rscale>
<asrwt>0</asrwt>
<pdfrwt beam="1">  1        2 0.30211168E+00 0.59507275E+02</pdfrwt>
<pdfrwt beam="2">  1       -2 0.69356298E-04 0.59507275E+02</pdfrwt>
<totfact> 0.60395757E+05</totfact>
</mgrwt>
</event>
<event>
 4    1  0.4696545E-002  0.4280082E+02  0.7818608E-02  0.1488557E+00
          2   -1    0    0    0  501  0.00000000000E+00  0.00000000000E+00  0.22002871730E+04  0.22002871730E+04  0.25500000000E-02 0.  1.
         -2   -1    0    0  501    0 -0.00000000000E+00 -0.00000000000E+00 -0.20813665609E+00  0.20815227625E+00  0.25500000000E-02 0.  1.
          2    1    1    2    0  502 -0.53634888839E+01  0.20140481060E+02  0.85042897996E+03  0.85068434566E+03  0.25500000000E-02 0.  1.
         -2    1    1    2  502    0  0.53634888839E+01 -0.20140481060E+02  0.13496500564E+04  0.13498109797E+04  0.25500000000E-02 0.  1.
<mgrwt>
<rscale>  0 0.42800823E+02</rscale>
<asrwt>0</asrwt>
<pdfrwt beam="1">  1        2 0.33853512E+00 0.42800823E+02</pdfrwt>
<pdfrwt beam="2">  1       -2 0.32019445E-04 0.42800823E+02</pdfrwt>
<totfact> 0.12281219E+06</totfact>
</mgrwt>
</event>
<event>
 4    1  0.4696545E-002  0.5842230E+02  0.7818608E-02  0.1404574E+00
          2   -1    0    0    0  501  0.00000000000E+00  0.00000000000E+00  0.32545056779E+02  0.32545056878E+02  0.25500000000E-02 0.  1.
         -2   -1    0    0  501    0 -0.00000000000E+00 -0.00000000000E+00 -0.26218767998E+02  0.26218768122E+02  0.25500000000E-02 0.  1.
          2    1    1    2    0  502 -0.20016828011E+02 -0.25017291709E+01  0.24413865288E+02  0.31669683883E+02  0.25500000000E-02 0. -1.
         -2    1    1    2  502    0  0.20016828011E+02  0.25017291709E+01 -0.18087576507E+02  0.27094141117E+02  0.25500000000E-02 0. -1.
<mgrwt>
<rscale>  0 0.58422301E+02</rscale>
<asrwt>0</asrwt>
<pdfrwt beam="1">  1        2 0.50069318E-02 0.58422301E+02</pdfrwt>
<pdfrwt beam="2">  1       -2 0.40336567E-02 0.58422301E+02</pdfrwt>
<totfact> 0.31510224E+05</totfact>
</mgrwt>
</event>
<event>
 4    1  0.4696545E-002  0.9040027E+02  0.7818608E-02  0.1301885E+00
          2   -1    0    0    0  501  0.00000000000E+00  0.00000000000E+00  0.18748534514E+04  0.18748534514E+04  0.25500000000E-02 0.  1.
         -2   -1    0    0  501    0 -0.00000000000E+00 -0.00000000000E+00 -0.10897115400E+01  0.10897145236E+01  0.25500000000E-02 0.  1.
          2    1    1    2    0  502  0.52901421242E+01 -0.44817772673E+02  0.98951831725E+03  0.99054687851E+03  0.25500000000E-02 0. -1.
         -2    1    1    2  502    0 -0.52901421242E+01  0.44817772673E+02  0.88424542259E+03  0.88539628739E+03  0.25500000000E-02 0. -1.
<mgrwt>
<rscale>  0 0.90400271E+02</rscale>
<asrwt>0</asrwt>
<pdfrwt beam="1">  1        2 0.28843623E+00 0.90400271E+02</pdfrwt>
<pdfrwt beam="2">  1       -2 0.16764977E-03 0.90400271E+02</pdfrwt>
<totfact> 0.21274303E+05</totfact>
</mgrwt>
</event>
<event>
 4    1  0.4696545E-002  0.7965686E+02  0.7818608E-02  0.1330028E+00
          2   -1    0    0    0  501  0.00000000000E+00  0.00000000000E+00  0.21205627716E+02  0.21205627869E+02  0.25500000000E-02 0.  1.
         -2   -1    0    0  501    0 -0.00000000000E+00 -0.00000000000E+00 -0.74805786780E+02  0.74805786824E+02  0.25500000000E-02 0.  1.
          2    1    1    2    0  502  0.22437314165E+02  0.90499747098E+01 -0.64933865637E+02  0.69294603125E+02  0.25500000000E-02 0. -1.
         -2    1    1    2  502    0 -0.22437314165E+02 -0.90499747098E+01  0.11333706573E+02  0.26716811568E+02  0.25500000000E-02 0. -1.
<mgrwt>
<rscale>  0 0.79656856E+02</rscale>
<asrwt>0</asrwt>
<pdfrwt beam="1">  1        2 0.32624043E-02 0.79656856E+02</pdfrwt>
<pdfrwt beam="2">  1       -2 0.11508583E-01 0.79656856E+02</pdfrwt>
<totfact> 0.12067226E+05</totfact>
</mgrwt>
</event>
<event>
 4    1  0.4696545E-002  0.4440478E+02  0.7818608E-02  0.1478092E+00
          2   -1    0    0    0  501  0.00000000000E+00  0.00000000000E+00  0.14496192305E+03  0.14496192308E+03  0.25500000000E-02 0.  1.
         -2   -1    0    0  501    0 -0.00000000000E+00 -0.00000000000E+00 -0.34005210728E+01  0.34005220289E+01  0.25500000000E-02 0.  1.
          2    1    1    2    0  502 -0.54053217644E+01  0.21342630504E+02  0.61201037957E+02  0.65040698288E+02  0.25500000000E-02 0.  1.
         -2    1    1    2  502    0  0.54053217644E+01 -0.21342630504E+02  0.80360364025E+02  0.83321746819E+02  0.25500000000E-02 0.  1.
<mgrwt>
<rscale>  0 0.44404781E+02</rscale>
<asrwt>0</asrwt>
<pdfrwt beam="1">  1        2 0.22301834E-01 0.44404781E+02</pdfrwt>
<pdfrwt beam="2">  1       -2 0.52315718E-03 0.44404781E+02</pdfrwt>
<totfact> 0.89392128E+05</totfact>
</mgrwt>
</event>
<event>
 4    1  0.4696545E-002  0.4017081E+02  0.7818608E-02  0.1506958E+00
          2   -1    0    0    0  501  0.00000000000E+00  0.00000000000E+00  0.13640185333E+03  0.13640185335E+03  0.25500000000E-02 0. -1.
         -2   -1    0    0  501    0 -0.00000000000E+00 -0.00000000000E+00 -0.29576095378E+01  0.29576106371E+01  0.25500000000E-02 0. -1.
          2    1    1    2    0  502  0.16119308766E+02 -0.11937084334E+02  0.70356312350E+02  0.73159666425E+02  0.25500000000E-02 0. -1.
         -2    1    1    2  502    0 -0.16119308766E+02  0.11937084334E+02  0.63087931439E+02  0.66199797562E+02  0.25500000000E-02 0. -1.
<mgrwt>
<rscale>  0 0.40170810E+02</rscale>
<asrwt>0</asrwt>
<pdfrwt beam="1">  1        2 0.20984906E-01 0.40170810E+02</pdfrwt>
<pdfrwt beam="2">  1       -2 0.45501681E-03 0.40170810E+02</pdfrwt>
<totfact> 0.11239689E+06</totfact>
</mgrwt>
</event>
<event>
 4    1  0.4696545E-002  0.7306321E+02  0.7818608E-02  0.1349976E+00
          2   -1    0    0    0  501  0.00000000000E+00  0.00000000000E+00  0.79648263090E+02  0.79648263131E+02  0.25500000000E-02 0.  1.
         -2   -1    0    0  501    0 -0.00000000000E+00 -0.00000000000E+00 -0.16755645355E+02  0.16755645549E+02  0.25500000000E-02 0.  1.
          2    1    1    2    0  502 -0.10699742674E+02 -0.29110285510E+02  0.59747737492E+01  0.31584666273E+02  0.25500000000E-02 0.  1.
         -2    1    1    2  502    0  0.10699742674E+02  0.29110285510E+02  0.56917843985E+02  0.64819242407E+02  0.25500000000E-02 0.  1.
<mgrwt>
<rscale>  0 0.73063207E+02</rscale>
<asrwt>0</asrwt>
<pdfrwt beam="1">  1        2 0.12253579E-01 0.73063207E+02</pdfrwt>
<pdfrwt beam="2">  1       -2 0.25777916E-02 0.73063207E+02</pdfrwt>
<totfact> 0.21004442E+05</totfact>
</mgrwt>
</event>
<event>
 4    1  0.4696545E-002  0.7736927E+02  0.7818608E-02  0.1336687E+00
          2   -1    0    0    0  501  0.00000000000E+00  0.00000000000E+00  0.16454486760E+02  0.16454486957E+02  0.25500000000E-02 0.  1.
         -2   -1    0    0  501    0 -0.00000000000E+00 -0.00000000000E+00 -0.90947890421E+02  0.90947890457E+02  0.25500000000E-02 0.  1.
          2    1    1    2    0  502  0.29326831599E+01  0.34462207467E+02 -0.13192463238E+02  0.37017367097E+02  0.25500000000E-02 0.  1.
         -2    1    1    2  502    0 -0.29326831599E+01 -0.34462207467E+02 -0.61300940423E+02  0.70385010317E+02  0.25500000000E-02 0.  1.
<mgrwt>
<rscale>  0 0.77369267E+02</rscale>
<asrwt>0</asrwt>
<pdfrwt beam="1">  1        2 0.25314596E-02 0.77369267E+02</pdfrwt>
<pdfrwt beam="2">  1       -2 0.13991983E-01 0.77369267E+02</pdfrwt>
<totfact> 0.12326918E+05</totfact>
</mgrwt>
</event>
<event>
 4    1  0.4696545E-002  0.6854351E+02  0.7818608E-02  0.1365117E+00
          2   -1    0    0    0  501  0.00000000000E+00  0.00000000000E+00  0.66651460324E+02  0.66651460373E+02  0.25500000000E-02 0.  1.
         -2   -1    0    0  501    0 -0.00000000000E+00 -0.00000000000E+00 -0.17622318296E+02  0.17622318481E+02  0.25500000000E-02 0.  1.
          2    1    1    2    0  502 -0.70559740355E+01 -0.33295950232E+02  0.19574183464E+02  0.39262650652E+02  0.25500000000E-02 0.  1.
         -2    1    1    2  502    0  0.70559740355E+01  0.33295950232E+02  0.29454958563E+02  0.45011128201E+02  0.25500000000E-02 0.  1.
<mgrwt>
<rscale>  0 0.68543512E+02</rscale>
<asrwt>0</asrwt>
<pdfrwt beam="1">  1        2 0.10254071E-01 0.68543512E+02</pdfrwt>
<pdfrwt beam="2">  1       -2 0.27111259E-02 0.68543512E+02</pdfrwt>
<totfact> 0.23836250E+05</totfact>
</mgrwt>
</event>
<event>
 4    1  0.4696545E-002  0.1948377E+03  0.7818608E-02  0.1154169E+00
         -2   -1    0    0  501    0 -0.00000000000E+00  0.00000000000E+00  0.15947191741E+02  0.15947191945E+02  0.25500000000E-02 0. -1.
          2   -1    0    0    0  501  0.00000000000E+00 -0.00000000000E+00 -0.59511617936E+03  0.59511617937E+03  0.25500000000E-02 0. -1.
          2    1    1    2    0  502  0.46073043498E+01  0.51091715524E+02 -0.29844609486E+02  0.59348895276E+02  0.25500000000E-02 0.  1.
         -2    1    1    2  502    0 -0.46073043498E+01 -0.51091715524E+02 -0.54932437813E+03  0.55171447603E+03  0.25500000000E-02 0.  1.
<mgrwt>
<rscale>  0 0.19483770E+03</rscale>
<asrwt>0</asrwt>
<pdfrwt beam="2">  1        2 0.91556318E-01 0.19483770E+03</pdfrwt>
<pdfrwt beam="1">  1       -2 0.24534146E-02 0.19483770E+03</pdfrwt>
<totfact> 0.28195553E+04</totfact>
</mgrwt>
</event>
<event>
 4    1  0.4696545E-002  0.4125985E+02  0.7818608E-02  0.1499140E+00
          2   -1    0    0    0  501  0.00000000000E+00  0.00000000000E+00  0.18595575072E+04  0.18595575072E+04  0.25500000000E-02 0. -1.
         -2   -1    0    0  501    0 -0.00000000000E+00 -0.00000000000E+00 -0.22886126571E+00  0.22887547147E+00  0.25500000000E-02 0. -1.
          2    1    1    2    0  502  0.17138267034E+02  0.10903842196E+02  0.10920588354E+04  0.10922477347E+04  0.25500000000E-02 0. -1.
         -2    1    1    2  502    0 -0.17138267034E+02 -0.10903842196E+02  0.76726981052E+03  0.76753864796E+03  0.25500000000E-02 0. -1.
<mgrwt>
<rscale>  0 0.41259854E+02</rscale>
<asrwt>0</asrwt>
<pdfrwt beam="1">  1        2 0.28609591E+00 0.41259854E+02</pdfrwt>
<pdfrwt beam="2">  1       -2 0.35209271E-04 0.41259854E+02</pdfrwt>
<totfact> 0.15688896E+06</totfact>
</mgrwt>
</event>
<event>
 4    1  0.4696545E-002  0.9040405E+02  0.7818608E-02  0.1301876E+00
          2   -1    0    0    0  501  0.00000000000E+00  0.00000000000E+00  0.60759609139E+03  0.60759609140E+03  0.25500000000E-02 0.  1.
         -2   -1    0    0  501    0 -0.00000000000E+00 -0.00000000000E+00 -0.33627979839E+01  0.33627989507E+01  0.25500000000E-02 0.  1.
          2    1    1    2    0  502  0.19536379850E+02 -0.33212882072E+02  0.14241140821E+03  0.14753228415E+03  0.25500000000E-02 0.  1.
         -2    1    1    2  502    0 -0.19536379850E+02  0.33212882072E+02  0.46182188520E+03  0.46342660619E+03  0.25500000000E-02 0.  1.
<mgrwt>
<rscale>  0 0.90404053E+02</rscale>
<asrwt>0</asrwt>
<pdfrwt beam="1">  1        2 0.93476380E-01 0.90404053E+02</pdfrwt>
<pdfrwt beam="2">  1       -2 0.51735329E-03 0.90404053E+02</pdfrwt>
<totfact> 0.23385336E+05</totfact>
</mgrwt>
</event>
<event>
 4    1  0.4696545E-002  0.4358362E+02  0.7818608E-02  0.1483383E+00
         -2   -1    0    0  501    0 -0.00000000000E+00  0.00000000000E+00  0.25498719431E+00  0.25499994464E+00  0.25500000000E-02 0. -1.
          2   -1    0    0    0  501  0.00000000000E+00 -0.00000000000E+00 -0.18623334907E+04  0.18623334907E+04  0.25500000000E-02 0. -1.
          2    1    1    2    0  502  0.20003155814E+02  0.26338724023E+01 -0.12829811565E+04  0.12831397864E+04  0.25500000000E-02 0.  1.
         -2    1    1    2  502    0 -0.20003155814E+02 -0.26338724023E+01 -0.57909734705E+03  0.57944870428E+03  0.25500000000E-02 0.  1.
<mgrwt>
<rscale>  0 0.43583624E+02</rscale>
<asrwt>0</asrwt>
<pdfrwt beam="2">  1        2 0.28650195E+00 0.43583624E+02</pdfrwt>
<pdfrwt beam="1">  1       -2 0.39231271E-04 0.43583624E+02</pdfrwt>
<totfact> 0.13702561E+06</totfact>
</mgrwt>
</event>
<event>
 4    1  0.4696545E-002  0.5052604E+02  0.7818608E-02  0.1442525E+00
          2   -1    0    0    0  501  0.00000000000E+00  0.00000000000E+00  0.59871212967E+03  0.59871212968E+03  0.25500000000E-02 0. -1.
         -2   -1    0    0  501    0 -0.00000000000E+00 -0.00000000000E+00 -0.10659867912E+01  0.10659898412E+01  0.25500000000E-02 0. -1.
          2    1    1    2    0  502 -0.24634944827E+02 -0.55673357304E+01  0.29185671566E+03  0.29294746665E+03  0.25500000000E-02 0. -1.
         -2    1    1    2  502    0  0.24634944827E+02  0.55673357304E+01  0.30578942722E+03  0.30683065287E+03  0.25500000000E-02 0. -1.
<mgrwt>
<rscale>  0 0.50526038E+02</rscale>
<asrwt>0</asrwt>
<pdfrwt beam="1">  1        2 0.92109655E-01 0.50526038E+02</pdfrwt>
<pdfrwt beam="2">  1       -2 0.16399803E-03 0.50526038E+02</pdfrwt>
<totfact> 0.10314884E+06</totfact>
</mgrwt>
</event>
<event>
 4    1  0.4696545E-002  0.1529926E+03  0.7818608E-02  0.1196843E+00
         -2   -1    0    0  501    0 -0.00000000000E+00  0.00000000000E+00  0.40391337215E+01  0.40391345265E+01  0.25500000000E-02 0. -1.
          2   -1    0    0    0  501  0.00000000000E+00 -0.00000000000E+00 -0.14487474160E+04  0.14487474160E+04  0.25500000000E-02 0. -1.
          2    1    1    2    0  502  0.20746363313E+02 -0.61778442770E+02 -0.11027431272E+04  0.11046670956E+04  0.25500000000E-02 0.  1.
         -2    1    1    2  502    0 -0.20746363313E+02  0.61778442770E+02 -0.34196515504E+03  0.34811945485E+03  0.25500000000E-02 0.  1.
<mgrwt>
<rscale>  0 0.15299262E+03</rscale>
<asrwt>0</asrwt>
<pdfrwt beam="2">  1        2 0.22288380E+00 0.15299262E+03</pdfrwt>
<pdfrwt beam="1">  1       -2 0.62140641E-03 0.15299262E+03</pdfrwt>
<totfact> 0.59070636E+04</totfact>
</mgrwt>
</event>
<event>
 4    1  0.4696545E-002  0.5696363E+02  0.7818608E-02  0.1411034E+00
         -2   -1    0    0  501    0 -0.00000000000E+00  0.00000000000E+00  0.13471842393E+01  0.13471866527E+01  0.25500000000E-02 0.  1.
          2   -1    0    0    0  501  0.00000000000E+00 -0.00000000000E+00 -0.60215456633E+03  0.60215456633E+03  0.25500000000E-02 0.  1.
          2    1    1    2    0  502 -0.37676930453E+01  0.27656224225E+02 -0.24033028508E+03  0.24194567196E+03  0.25500000000E-02 0. -1.
         -2    1    1    2  502    0  0.37676930453E+01 -0.27656224225E+02 -0.36047709701E+03  0.36155608102E+03  0.25500000000E-02 0. -1.
<mgrwt>
<rscale>  0 0.56963633E+02</rscale>
<asrwt>0</asrwt>
<pdfrwt beam="2">  1        2 0.92638949E-01 0.56963633E+02</pdfrwt>
<pdfrwt beam="1">  1       -2 0.20725978E-03 0.56963633E+02</pdfrwt>
<totfact> 0.76623826E+05</totfact>
</mgrwt>
</event>
<event>
 4    1  0.4696545E-002  0.4303750E+02  0.7818608E-02  0.1486979E+00
          2   -1    0    0    0  501  0.00000000000E+00  0.00000000000E+00  0.46684718693E+02  0.46684718762E+02  0.25500000000E-02 0. -1.
         -2   -1    0    0  501    0 -0.00000000000E+00 -0.00000000000E+00 -0.99188045592E+01  0.99188048870E+01  0.25500000000E-02 0. -1.
          2    1    1    2    0  502  0.12497695684E+02  0.17503820119E+02  0.17471285871E+02  0.27709600370E+02  0.25500000000E-02 0. -1.
         -2    1    1    2  502    0 -0.12497695684E+02 -0.17503820119E+02  0.19294628263E+02  0.28893923279E+02  0.25500000000E-02 0. -1.
<mgrwt>
<rscale>  0 0.43037500E+02</rscale>
<asrwt>0</asrwt>
<pdfrwt beam="1">  1        2 0.71822642E-02 0.43037500E+02</pdfrwt>
<pdfrwt beam="2">  1       -2 0.15259700E-02 0.43037500E+02</pdfrwt>
<totfact> 0.74227542E+05</totfact>
</mgrwt>
</event>
<event>
 4    1  0.4696545E-002  0.6290690E+02  0.7818608E-02  0.1386022E+00
         -2   -1    0    0  501    0 -0.00000000000E+00  0.00000000000E+00  0.23780216483E+01  0.23780230156E+01  0.25500000000E-02 0.  1.
          2   -1    0    0    0  501  0.00000000000E+00 -0.00000000000E+00 -0.41602619868E+03  0.41602619868E+03  0.25500000000E-02 0.  1.
          2    1    1    2    0  502 -0.30627754941E+02  0.70148465217E+01 -0.19729609146E+03  0.19978241954E+03  0.25500000000E-02 0.  1.
         -2    1    1    2  502    0  0.30627754941E+02 -0.70148465217E+01 -0.21635208557E+03  0.21862180216E+03  0.25500000000E-02 0.  1.
<mgrwt>
<rscale>  0 0.62906902E+02</rscale>
<asrwt>0</asrwt>
<pdfrwt beam="2">  1        2 0.64003973E-01 0.62906902E+02</pdfrwt>
<pdfrwt beam="1">  1       -2 0.36584992E-03 0.62906902E+02</pdfrwt>
<totfact> 0.53143995E+05</totfact>
</mgrwt>
</event>
<event>
 4    1  0.4696545E-002  0.4641016E+02  0.7818608E-02  0.1465726E+00
         -2   -1    0    0  501    0 -0.00000000000E+00  0.00000000000E+00  0.85640530000E+00  0.85640909638E+00  0.25500000000E-02 0.  1.
          2   -1    0    0    0  501  0.00000000000E+00 -0.00000000000E+00 -0.62876124499E+03  0.62876124499E+03  0.25500000000E-02 0.  1.
          2    1    1    2    0  502  0.20480357242E+02 -0.10322120984E+02 -0.26601790123E+03  0.26700470969E+03  0.25500000000E-02 0. -1.
         -2    1    1    2  502    0 -0.20480357242E+02  0.10322120984E+02 -0.36188693846E+03  0.36261294440E+03  0.25500000000E-02 0. -1.
<mgrwt>
<rscale>  0 0.46410157E+02</rscale>
<asrwt>0</asrwt>
<pdfrwt beam="2">  1        2 0.96732131E-01 0.46410157E+02</pdfrwt>
<pdfrwt beam="1">  1       -2 0.13175546E-03 0.46410157E+02</pdfrwt>
<totfact> 0.12878878E+06</totfact>
</mgrwt>
</event>
<event>
 4    1  0.4696545E-002  0.8185016E+02  0.7818608E-02  0.1323881E+00
         -2   -1    0    0  501    0 -0.00000000000E+00  0.00000000000E+00  0.56206898272E+02  0.56206898330E+02  0.25500000000E-02 0.  1.
          2   -1    0    0    0  501  0.00000000000E+00 -0.00000000000E+00 -0.29798162856E+02  0.29798162965E+02  0.25500000000E-02 0.  1.
          2    1    1    2    0  502 -0.61186846200E+01  0.21369879230E+02 -0.22902004346E+02  0.31915699104E+02  0.25500000000E-02 0. -1.
         -2    1    1    2  502    0  0.61186846200E+01 -0.21369879230E+02  0.49310739763E+02  0.54089362191E+02  0.25500000000E-02 0. -1.
<mgrwt>
<rscale>  0 0.81850163E+02</rscale>
<asrwt>0</asrwt>
<pdfrwt beam="2">  1        2 0.45843328E-02 0.81850163E+02</pdfrwt>
<pdfrwt beam="1">  1       -2 0.86472151E-02 0.81850163E+02</pdfrwt>
<totfact> 0.12113083E+05</totfact>
</mgrwt>
</event>
<event>
 4    1  0.4696545E-002  0.4052199E+02  0.7818608E-02  0.1504405E+00
         -2   -1    0    0  501    0 -0.00000000000E+00  0.00000000000E+00  0.90882444601E+01  0.90882448178E+01  0.25500000000E-02 0. -1.
          2   -1    0    0    0  501  0.00000000000E+00 -0.00000000000E+00 -0.45169103875E+02  0.45169103947E+02  0.25500000000E-02 0. -1.
          2    1    1    2    0  502  0.93934934219E+01  0.17828976703E+02 -0.15232525286E+02  0.25261432304E+02  0.25500000000E-02 0. -1.
         -2    1    1    2  502    0 -0.93934934219E+01 -0.17828976703E+02 -0.20848334129E+02  0.28995916461E+02  0.25500000000E-02 0. -1.
<mgrwt>
<rscale>  0 0.40521988E+02</rscale>
<asrwt>0</asrwt>
<pdfrwt beam="2">  1        2 0.69490928E-02 0.40521988E+02</pdfrwt>
<pdfrwt beam="1">  1       -2 0.13981915E-02 0.40521988E+02</pdfrwt>
<totfact> 0.85840893E+05</totfact>
</mgrwt>
</event>
<event>
 4    1  0.4696545E-002  0.4861035E+02  0.7818608E-02  0.1452984E+00
         -2   -1    0    0  501    0 -0.00000000000E+00  0.00000000000E+00  0.49825391205E+02  0.49825391270E+02  0.25500000000E-02 0. -1.
          2   -1    0    0    0  501  0.00000000000E+00 -0.00000000000E+00 -0.11856234586E+02  0.11856234861E+02  0.25500000000E-02 0. -1.
          2    1    1    2    0  502 -0.21084203188E+02  0.10334573182E+02  0.26948828243E+02  0.35743340318E+02  0.25500000000E-02 0. -1.
         -2    1    1    2  502    0  0.21084203188E+02 -0.10334573182E+02  0.11020328375E+02  0.25938285812E+02  0.25500000000E-02 0. -1.
<mgrwt>
<rscale>  0 0.48610350E+02</rscale>
<asrwt>0</asrwt>
<pdfrwt beam="2">  1        2 0.18240361E-02 0.48610350E+02</pdfrwt>
<pdfrwt beam="1">  1       -2 0.76654449E-02 0.48610350E+02</pdfrwt>
<totfact> 0.43645580E+05</totfact>
</mgrwt>
</event>
<event>
 4    1  0.4696545E-002  0.4125638E+02  0.7818608E-02  0.1499164E+00
          2   -1    0    0    0  501  0.00000000000E+00  0.00000000000E+00  0.58780005226E+03  0.58780005226E+03  0.25500000000E-02 0. -1.
         -2   -1    0    0  501    0 -0.00000000000E+00 -0.00000000000E+00 -0.72392113827E+00  0.72392562942E+00  0.25500000000E-02 0. -1.
          2    1    1    2    0  502 -0.11723668005E+02  0.16959444219E+02  0.30316099562E+03  0.30386124533E+03  0.25500000000E-02 0.  1.
         -2    1    1    2  502    0  0.11723668005E+02 -0.16959444219E+02  0.28391513550E+03  0.28466273256E+03  0.25500000000E-02 0.  1.
<mgrwt>
<rscale>  0 0.41256379E+02</rscale>
<asrwt>0</asrwt>
<pdfrwt beam="1">  1        2 0.90430677E-01 0.41256379E+02</pdfrwt>
<pdfrwt beam="2">  1       -2 0.11137295E-03 0.41256379E+02</pdfrwt>
<totfact> 0.16840877E+06</totfact>
</mgrwt>
</event>
<event>
 4    1  0.4696545E-002  0.5059394E+02  0.7818608E-02  0.1442164E+00
          2   -1    0    0    0  501  0.00000000000E+00  0.00000000000E+00  0.41592219871E+03  0.41592219872E+03  0.25500000000E-02 0.  1.
         -2   -1    0    0  501    0 -0.00000000000E+00 -0.00000000000E+00 -0.15385960272E+01  0.15385981403E+01  0.25500000000E-02 0.  1.
          2    1    1    2    0  502 -0.19954098990E+02  0.78676956751E+01  0.31785329759E+03  0.31857618476E+03  0.25500000000E-02 0. -1.
         -2    1    1    2  502    0  0.19954098990E+02 -0.78676956751E+01  0.96530305093E+02  0.98884612097E+02  0.25500000000E-02 0. -1.
<mgrwt>
<rscale>  0 0.50593940E+02</rscale>
<asrwt>0</asrwt>
<pdfrwt beam="1">  1        2 0.63987966E-01 0.50593940E+02</pdfrwt>
<pdfrwt beam="2">  1       -2 0.23670748E-03 0.50593940E+02</pdfrwt>
<totfact> 0.91916162E+05</totfact>
</mgrwt>
</event>
<event>
 4    1  0.4696545E-002  0.1222422E+03  0.7818608E-02  0.1239443E+00
         -2   -1    0    0  501    0 -0.00000000000E+00  0.00000000000E+00  0.41826993239E+02  0.41826993317E+02  0.25500000000E-02 0.  1.
          2   -1    0    0    0  501  0.00000000000E+00 -0.00000000000E+00 -0.89315211336E+02  0.89315211372E+02  0.25500000000E-02 0.  1.
          2    1    1    2    0  502  0.14788117587E+02 -0.36268515983E+02 -0.74082558467E+02  0.83799278928E+02  0.25500000000E-02 0. -1.
         -2    1    1    2  502    0 -0.14788117587E+02  0.36268515983E+02  0.26594340370E+02  0.47342925761E+02  0.25500000000E-02 0. -1.
<mgrwt>
<rscale>  0 0.12224217E+03</rscale>
<asrwt>0</asrwt>
<pdfrwt beam="2">  1        2 0.13740802E-01 0.12224217E+03</pdfrwt>
<pdfrwt beam="1">  1       -2 0.64349221E-02 0.12224217E+03</pdfrwt>
<totfact> 0.51641626E+04</totfact>
</mgrwt>
</event>
<event>
 4    1  0.4696545E-002  0.4351323E+02  0.7818608E-02  0.1483843E+00
         -2   -1    0    0  501    0 -0.00000000000E+00  0.00000000000E+00  0.89349951356E+00  0.89350315233E+00  0.25500000000E-02 0.  1.
          2   -1    0    0    0  501  0.00000000000E+00 -0.00000000000E+00 -0.52977000467E+03  0.52977000467E+03  0.25500000000E-02 0.  1.
          2    1    1    2    0  502  0.15288532244E+02  0.13936022766E+02 -0.18226745288E+03  0.18343766335E+03  0.25500000000E-02 0.  1.
         -2    1    1    2  502    0 -0.15288532244E+02 -0.13936022766E+02 -0.34660905227E+03  0.34722584447E+03  0.25500000000E-02 0.  1.
<mgrwt>
<rscale>  0 0.43513226E+02</rscale>
<asrwt>0</asrwt>
<pdfrwt beam="2">  1        2 0.81502827E-01 0.43513226E+02</pdfrwt>
<pdfrwt beam="1">  1       -2 0.13746217E-03 0.43513226E+02</pdfrwt>
<totfact> 0.14371486E+06</totfact>
</mgrwt>
</event>
<event>
 4    1  0.4696545E-002  0.5575014E+02  0.7818608E-02  0.1416584E+00
         -2   -1    0    0  501    0 -0.00000000000E+00  0.00000000000E+00  0.47355461787E+02  0.47355461856E+02  0.25500000000E-02 0. -1.
          2   -1    0    0    0  501  0.00000000000E+00 -0.00000000000E+00 -0.16408237007E+02  0.16408237206E+02  0.25500000000E-02 0. -1.
          2    1    1    2    0  502 -0.15671071134E+02  0.20379407872E+02  0.31489441830E+01  0.25900165862E+02  0.25500000000E-02 0. -1.
         -2    1    1    2  502    0  0.15671071134E+02 -0.20379407872E+02  0.27798280597E+02  0.37863533200E+02  0.25500000000E-02 0. -1.
<mgrwt>
<rscale>  0 0.55750144E+02</rscale>
<asrwt>0</asrwt>
<pdfrwt beam="2">  1        2 0.25243442E-02 0.55750144E+02</pdfrwt>
<pdfrwt beam="1">  1       -2 0.72854556E-02 0.55750144E+02</pdfrwt>
<totfact> 0.31693254E+05</totfact>
</mgrwt>
</event>
<event>
 4    1  0.4696545E-002  0.4522726E+02  0.7818608E-02  0.1472928E+00
          2   -1    0    0    0  501  0.00000000000E+00  0.00000000000E+00  0.36864577395E+03  0.36864577396E+03  0.25500000000E-02 0. -1.
         -2   -1    0    0  501    0 -0.00000000000E+00 -0.00000000000E+00 -0.13871741083E+01  0.13871764521E+01  0.25500000000E-02 0. -1.
          2    1    1    2    0  502 -0.19632228371E+02  0.70849350719E+01  0.11241823364E+03  0.11433931938E+03  0.25500000000E-02 0.  1.
         -2    1    1    2  502    0  0.19632228371E+02 -0.70849350719E+01  0.25484036621E+03  0.25569363103E+03  0.25500000000E-02 0.  1.
<mgrwt>
<rscale>  0 0.45227262E+02</rscale>
<asrwt>0</asrwt>
<pdfrwt beam="1">  1        2 0.56714724E-01 0.45227262E+02</pdfrwt>
<pdfrwt beam="2">  1       -2 0.21341162E-03 0.45227262E+02</pdfrwt>
<totfact> 0.11636928E+06</totfact>
</mgrwt>
</event>
<event>
 4    1  0.4696545E-002  0.4172177E+02  0.7818608E-02  0.1495910E+00
         -2   -1    0    0  501    0 -0.00000000000E+00  0.00000000000E+00  0.82190522461E+00  0.82190918034E+00  0.25500000000E-02 0. -1.
          2   -1    0    0    0  501  0.00000000000E+00 -0.00000000000E+00 -0.52947165623E+03  0.52947165624E+03  0.25500000000E-02 0. -1.
          2    1    1    2    0  502  0.17519936172E+02 -0.11319709673E+02 -0.26045766329E+03  0.26129155816E+03  0.25500000000E-02 0. -1.
         -2    1    1    2  502    0 -0.17519936172E+02  0.11319709673E+02 -0.26819208771E+03  0.26900200726E+03  0.25500000000E-02 0. -1.
<mgrwt>
<rscale>  0 0.41721772E+02</rscale>
<asrwt>0</asrwt>
<pdfrwt beam="2">  1        2 0.81456906E-01 0.41721772E+02</pdfrwt>
<pdfrwt beam="1">  1       -2 0.12644769E-03 0.41721772E+02</pdfrwt>
<totfact> 0.15910761E+06</totfact>
</mgrwt>
</event>
<event>
 4    1  0.4696545E-002  0.5161454E+02  0.7818608E-02  0.1436823E+00
         -2   -1    0    0  501    0 -0.00000000000E+00  0.00000000000E+00  0.22959693673E+01  0.22959707834E+01  0.25500000000E-02 0. -1.
          2   -1    0    0    0  501  0.00000000000E+00 -0.00000000000E+00 -0.29008006295E+03  0.29008006296E+03  0.25500000000E-02 0. -1.
          2    1    1    2    0  502 -0.70148029747E-01 -0.21233811269E+02 -0.60806450642E+02  0.64407329614E+02  0.25500000000E-02 0.  1.
         -2    1    1    2  502    0  0.70148029747E-01  0.21233811269E+02 -0.22697764294E+03  0.22796870413E+03  0.25500000000E-02 0.  1.
<mgrwt>
<rscale>  0 0.51614539E+02</rscale>
<asrwt>0</asrwt>
<pdfrwt beam="2">  1        2 0.44627673E-01 0.51614539E+02</pdfrwt>
<pdfrwt beam="1">  1       -2 0.35322640E-03 0.51614539E+02</pdfrwt>
<totfact> 0.77235511E+05</totfact>
</mgrwt>
</event>
<event>
 4    1  0.4696545E-002  0.8654053E+02  0.7818608E-02  0.1311452E+00
         -2   -1    0    0  501    0 -0.00000000000E+00  0.00000000000E+00  0.22829746467E+02  0.22829746609E+02  0.25500000000E-02 0.  1.
          2   -1    0    0    0  501  0.00000000000E+00 -0.00000000000E+00 -0.82012120750E+02  0.82012120790E+02  0.25500000000E-02 0.  1.
          2    1    1    2    0  502  0.37707530526E+02 -0.17732080162E+01 -0.55213677293E+02  0.66884619246E+02  0.25500000000E-02 0.  1.
         -2    1    1    2  502    0 -0.37707530526E+02  0.17732080162E+01 -0.39686969905E+01  0.37957248153E+02  0.25500000000E-02 0.  1.
<mgrwt>
<rscale>  0 0.86540532E+02</rscale>
<asrwt>0</asrwt>
<pdfrwt beam="2">  1        2 0.12617249E-01 0.86540532E+02</pdfrwt>
<pdfrwt beam="1">  1       -2 0.35122687E-02 0.86540532E+02</pdfrwt>
<totfact> 0.13361732E+05</totfact>
</mgrwt>
</event>
<event>
 4    1  0.4696545E-002  0.7509454E+02  0.7818608E-02  0.1343579E+00
          2   -1    0    0    0  501  0.00000000000E+00  0.00000000000E+00  0.53955131346E+03  0.53955131347E+03  0.25500000000E-02 0. -1.
         -2   -1    0    0  501    0 -0.00000000000E+00 -0.00000000000E+00 -0.26129063299E+01  0.26129075742E+01  0.25500000000E-02 0. -1.
          2    1    1    2    0  502  0.76322838519E+01 -0.33088750309E+02  0.15279974289E+03  0.15652756494E+03  0.25500000000E-02 0.  1.
         -2    1    1    2  502    0 -0.76322838519E+01  0.33088750309E+02  0.38413866424E+03  0.38563665610E+03  0.25500000000E-02 0.  1.
<mgrwt>
<rscale>  0 0.75094537E+02</rscale>
<asrwt>0</asrwt>
<pdfrwt beam="1">  1        2 0.83007876E-01 0.75094537E+02</pdfrwt>
<pdfrwt beam="2">  1       -2 0.40198577E-03 0.75094537E+02</pdfrwt>
<totfact> 0.36688065E+05</totfact>
</mgrwt>
</event>
<event>
 4    1  0.4696545E-002  0.4178280E+02  0.7818608E-02  0.1495487E+00
         -2   -1    0    0  501    0 -0.00000000000E+00  0.00000000000E+00  0.16786948225E+00  0.16788884886E+00  0.25500000000E-02 0.  1.
          2   -1    0    0    0  501  0.00000000000E+00 -0.00000000000E+00 -0.25997896932E+04  0.25997896932E+04  0.25500000000E-02 0.  1.
          2    1    1    2    0  502  0.69647593030E+01  0.19682477557E+02 -0.12539693796E+04  0.12541431787E+04  0.25500000000E-02 0.  1.
         -2    1    1    2  502    0 -0.69647593030E+01 -0.19682477557E+02 -0.13456524441E+04  0.13458144033E+04  0.25500000000E-02 0.  1.
<mgrwt>
<rscale>  0 0.41782797E+02</rscale>
<asrwt>0</asrwt>
<pdfrwt beam="2">  1        2 0.39993541E+00 0.41782797E+02</pdfrwt>
<pdfrwt beam="1">  1       -2 0.25829646E-04 0.41782797E+02</pdfrwt>
<totfact> 0.10292263E+06</totfact>
</mgrwt>
</event>
<event>
 4    1  0.4696545E-002  0.4864549E+02  0.7818608E-02  0.1452787E+00
         -2   -1    0    0  501    0 -0.00000000000E+00  0.00000000000E+00  0.84508363361E+02  0.84508363400E+02  0.25500000000E-02 0.  1.
          2   -1    0    0    0  501  0.00000000000E+00 -0.00000000000E+00 -0.70004434578E+01  0.70004439222E+01  0.25500000000E-02 0.  1.
          2    1    1    2    0  502 -0.22225679864E+02 -0.94294600557E+01  0.44302665961E+02  0.50454155231E+02  0.25500000000E-02 0.  1.
         -2    1    1    2  502    0  0.22225679864E+02  0.94294600557E+01  0.33205253943E+02  0.41054652091E+02  0.25500000000E-02 0.  1.
<mgrwt>
<rscale>  0 0.48645495E+02</rscale>
<asrwt>0</asrwt>
<pdfrwt beam="2">  1        2 0.10769913E-02 0.48645495E+02</pdfrwt>
<pdfrwt beam="1">  1       -2 0.13001287E-01 0.48645495E+02</pdfrwt>
<totfact> 0.39285571E+05</totfact>
</mgrwt>
</event>
<event>
 4    1  0.4696545E-002  0.4528960E+02  0.7818608E-02  0.1472542E+00
          2   -1    0    0    0  501  0.00000000000E+00  0.00000000000E+00  0.92535520674E+03  0.92535520675E+03  0.25500000000E-02 0. -1.
         -2   -1    0    0  501    0 -0.00000000000E+00 -0.00000000000E+00 -0.55414854261E+00  0.55415440969E+00  0.25500000000E-02 0. -1.
          2    1    1    2    0  502 -0.62530883199E+01 -0.21116865633E+02  0.35467723475E+03  0.35536032978E+03  0.25500000000E-02 0.  1.
         -2    1    1    2  502    0  0.62530883199E+01  0.21116865633E+02  0.57012382345E+03  0.57054903138E+03  0.25500000000E-02 0.  1.
<mgrwt>
<rscale>  0 0.45289600E+02</rscale>
<asrwt>0</asrwt>
<pdfrwt beam="1">  1        2 0.14236254E+00 0.45289600E+02</pdfrwt>
<pdfrwt beam="2">  1       -2 0.85253951E-04 0.45289600E+02</pdfrwt>
<totfact> 0.14680181E+06</totfact>
</mgrwt>
</event>
<event>
 4    1  0.4696545E-002  0.4153327E+02  0.7818608E-02  0.1497222E+00
          2   -1    0    0    0  501  0.00000000000E+00  0.00000000000E+00  0.38052137413E+03  0.38052137413E+03  0.25500000000E-02 0. -1.
         -2   -1    0    0  501    0 -0.00000000000E+00 -0.00000000000E+00 -0.11333202825E+01  0.11333231513E+01  0.25500000000E-02 0. -1.
          2    1    1    2    0  502 -0.16644386599E+02 -0.11512215616E+02  0.23248660136E+03  0.23336577841E+03  0.25500000000E-02 0. -1.
         -2    1    1    2  502    0  0.16644386599E+02  0.11512215616E+02  0.14690145249E+03  0.14828891888E+03  0.25500000000E-02 0. -1.
<mgrwt>
<rscale>  0 0.41533271E+02</rscale>
<asrwt>0</asrwt>
<pdfrwt beam="1">  1        2 0.58541650E-01 0.41533271E+02</pdfrwt>
<pdfrwt beam="2">  1       -2 0.17435749E-03 0.41533271E+02</pdfrwt>
<totfact> 0.14478246E+06</totfact>
</mgrwt>
</event>
<event>
 4    1  0.4696545E-002  0.6997394E+02  0.7818608E-02  0.1360182E+00
          2   -1    0    0    0  501  0.00000000000E+00  0.00000000000E+00  0.16841988309E+04  0.16841988309E+04  0.25500000000E-02 0. -1.
         -2   -1    0    0  501    0 -0.00000000000E+00 -0.00000000000E+00 -0.72680518616E+00  0.72680965949E+00  0.25500000000E-02 0. -1.
          2    1    1    2    0  502 -0.28398552453E+02 -0.39231092145E+01  0.35881508949E+03  0.35995852125E+03  0.25500000000E-02 0. -1.
         -2    1    1    2  502    0  0.28398552453E+02  0.39231092145E+01  0.13246569362E+04  0.13249671193E+04  0.25500000000E-02 0. -1.
<mgrwt>
<rscale>  0 0.69973944E+02</rscale>
<asrwt>0</asrwt>
<pdfrwt beam="1">  1        2 0.25910507E+00 0.69973944E+02</pdfrwt>
<pdfrwt beam="2">  1       -2 0.11181758E-03 0.69973944E+02</pdfrwt>
<totfact> 0.44518256E+05</totfact>
</mgrwt>
</event>
<event>
 4    1  0.4696545E-002  0.8074526E+02  0.7818608E-02  0.1326950E+00
         -2   -1    0    0  501    0 -0.00000000000E+00  0.00000000000E+00  0.22517818768E+01  0.22517833206E+01  0.25500000000E-02 0. -1.
          2   -1    0    0    0  501  0.00000000000E+00 -0.00000000000E+00 -0.72384839423E+03  0.72384839424E+03  0.25500000000E-02 0. -1.
          2    1    1    2    0  502  0.35046849506E+02 -0.33557624918E+01 -0.18311853705E+03  0.18647236100E+03  0.25500000000E-02 0. -1.
         -2    1    1    2  502    0 -0.35046849506E+02  0.33557624918E+01 -0.53847807531E+03  0.53962781655E+03  0.25500000000E-02 0. -1.
<mgrwt>
<rscale>  0 0.80745259E+02</rscale>
<asrwt>0</asrwt>
<pdfrwt beam="2">  1        2 0.11136111E+00 0.80745259E+02</pdfrwt>
<pdfrwt beam="1">  1       -2 0.34642867E-03 0.80745259E+02</pdfrwt>
<totfact> 0.32853594E+05</totfact>
</mgrwt>
</event>
<event>
 4    1  0.4696545E-002  0.5387315E+02  0.7818608E-02  0.1425504E+00
         -2   -1    0    0  501    0 -0.00000000000E+00  0.00000000000E+00  0.67656915842E+02  0.67656915890E+02  0.25500000000E-02 0.  1.
          2   -1    0    0    0  501  0.00000000000E+00 -0.00000000000E+00 -0.10724389788E+02  0.10724390092E+02  0.25500000000E-02 0.  1.
          2    1    1    2    0  502 -0.23726894173E+02  0.49645638659E+01  0.11376843618E+02  0.26777695545E+02  0.25500000000E-02 0. -1.
         -2    1    1    2  502    0  0.23726894173E+02 -0.49645638659E+01  0.45555682436E+02  0.51603610437E+02  0.25500000000E-02 0. -1.
<mgrwt>
<rscale>  0 0.53873153E+02</rscale>
<asrwt>0</asrwt>
<pdfrwt beam="2">  1        2 0.16499061E-02 0.53873153E+02</pdfrwt>
<pdfrwt beam="1">  1       -2 0.10408756E-01 0.53873153E+02</pdfrwt>
<totfact> 0.32154462E+05</totfact>
</mgrwt>
</event>
<event>
 4    1  0.4696545E-002  0.1011060E+03  0.7818608E-02  0.1277987E+00
         -2   -1    0    0  501    0 -0.00000000000E+00  0.00000000000E+00  0.14026730485E+03  0.14026730487E+03  0.25500000000E-02 0. -1.
          2   -1    0    0    0  501  0.00000000000E+00 -0.00000000000E+00 -0.18219527722E+02  0.18219527901E+02  0.25500000000E-02 0. -1.
          2    1    1    2    0  502 -0.12021628631E+01  0.28271648109E+02 -0.46419090839E+01  0.28675400761E+02  0.25500000000E-02 0. -1.
         -2    1    1    2  502    0  0.12021628631E+01 -0.28271648109E+02  0.12668968621E+03  0.12981143201E+03  0.25500000000E-02 0. -1.
<mgrwt>
<rscale>  0 0.10110597E+03</rscale>
<asrwt>0</asrwt>
<pdfrwt beam="2">  1        2 0.28030042E-02 0.10110597E+03</pdfrwt>
<pdfrwt beam="1">  1       -2 0.21579586E-01 0.10110597E+03</pdfrwt>
<totfact> 0.55103484E+04</totfact>
</mgrwt>
</event>
<event>
 4    1  0.4696545E-002  0.8611795E+02  0.7818608E-02  0.1312535E+00
          2   -1    0    0    0  501  0.00000000000E+00  0.00000000000E+00  0.13256695266E+04  0.13256695266E+04  0.25500000000E-02 0. -1.
         -2   -1    0    0  501    0 -0.00000000000E+00 -0.00000000000E+00 -0.13985943538E+01  0.13985966784E+01  0.25500000000E-02 0. -1.
          2    1    1    2    0  502 -0.19328631834E+01  0.27713273819E+02  0.15517260360E+03  0.15763977423E+03  0.25500000000E-02 0. -1.
         -2    1    1    2  502    0  0.19328631834E+01 -0.27713273819E+02  0.11690983287E+04  0.11694283491E+04  0.25500000000E-02 0. -1.
<mgrwt>
<rscale>  0 0.86117953E+02</rscale>
<asrwt>0</asrwt>
<pdfrwt beam="1">  1        2 0.20394840E+00 0.86117953E+02</pdfrwt>
<pdfrwt beam="2">  1       -2 0.21516935E-03 0.86117953E+02</pdfrwt>
<totfact> 0.28429317E+05</totfact>
</mgrwt>
</event>
<event>
 4    1  0.4696545E-002  0.4966880E+02  0.7818608E-02  0.1447136E+00
         -2   -1    0    0  501    0 -0.00000000000E+00  0.00000000000E+00  0.99941439888E+02  0.99941439921E+02  0.25500000000E-02 0.  1.
          2   -1    0    0    0  501  0.00000000000E+00 -0.00000000000E+00 -0.61710866053E+01  0.61710871321E+01  0.25500000000E-02 0.  1.
          2    1    1    2    0  502  0.60750742708E+01 -0.23151118544E+02  0.61034949132E+02  0.65560245876E+02  0.25500000000E-02 0. -1.
         -2    1    1    2  502    0 -0.60750742708E+01  0.23151118544E+02  0.32735404151E+02  0.40552281177E+02  0.25500000000E-02 0. -1.
<mgrwt>
<rscale>  0 0.49668795E+02</rscale>
<asrwt>0</asrwt>
<pdfrwt beam="2">  1        2 0.94939801E-03 0.49668795E+02</pdfrwt>
<pdfrwt beam="1">  1       -2 0.15375606E-01 0.49668795E+02</pdfrwt>
<totfact> 0.35879702E+05</totfact>
</mgrwt>
</event>
<event>
 4    1  0.4696545E-002  0.9972261E+02  0.7818608E-02  0.1280880E+00
         -2   -1    0    0  501    0 -0.00000000000E+00  0.00000000000E+00  0.48838183068E+01  0.48838189725E+01  0.25500000000E-02 0. -1.
          2   -1    0    0    0  501  0.00000000000E+00 -0.00000000000E+00 -0.50905861489E+03  0.50905861489E+03  0.25500000000E-02 0. -1.
          2    1    1    2    0  502 -0.39785453891E+02 -0.29315026029E+02 -0.28623321711E+03  0.29046808374E+03  0.25500000000E-02 0.  1.
         -2    1    1    2  502    0  0.39785453891E+02  0.29315026029E+02 -0.21794157948E+03  0.22347435012E+03  0.25500000000E-02 0.  1.
<mgrwt>
<rscale>  0 0.99722614E+02</rscale>
<asrwt>0</asrwt>
<pdfrwt beam="2">  1        2 0.78316668E-01 0.99722614E+02</pdfrwt>
<pdfrwt beam="1">  1       -2 0.75135712E-03 0.99722614E+02</pdfrwt>
<totfact> 0.17080324E+05</totfact>
</mgrwt>
</event>
<event>
 4    1  0.4696545E-002  0.4647172E+02  0.7818608E-02  0.1465358E+00
          2   -1    0    0    0  501  0.00000000000E+00  0.00000000000E+00  0.28124882736E+01  0.28124894296E+01  0.25500000000E-02 0. -1.
         -2   -1    0    0  501    0 -0.00000000000E+00 -0.00000000000E+00 -0.19196702808E+03  0.19196702810E+03  0.25500000000E-02 0. -1.
          2    1    1    2    0  502  0.22417562002E+02  0.44548260922E+01 -0.77037277542E+02  0.80356298441E+02  0.25500000000E-02 0.  1.
         -2    1    1    2  502    0 -0.22417562002E+02 -0.44548260922E+01 -0.11211726227E+03  0.11442321909E+03  0.25500000000E-02 0.  1.
<mgrwt>
<rscale>  0 0.46471717E+02</rscale>
<asrwt>0</asrwt>
<pdfrwt beam="1">  1        2 0.43269074E-03 0.46471717E+02</pdfrwt>
<pdfrwt beam="2">  1       -2 0.29533379E-01 0.46471717E+02</pdfrwt>
<totfact> 0.34290221E+05</totfact>
</mgrwt>
</event>
<event>
 4    1  0.4696545E-002  0.5463878E+02  0.7818608E-02  0.1421815E+00
          2   -1    0    0    0  501  0.00000000000E+00  0.00000000000E+00  0.63561744858E+03  0.63561744858E+03  0.25500000000E-02 0.  1.
         -2   -1    0    0  501    0 -0.00000000000E+00 -0.00000000000E+00 -0.11742097531E+01  0.11742125220E+01  0.25500000000E-02 0.  1.
          2    1    1    2    0  502 -0.23961374054E+02 -0.12040986947E+02  0.25642062572E+03  0.25781906469E+03  0.25500000000E-02 0. -1.
         -2    1    1    2  502    0  0.23961374054E+02  0.12040986947E+02  0.37802261310E+03  0.37897259642E+03  0.25500000000E-02 0. -1.
<mgrwt>
<rscale>  0 0.54638781E+02</rscale>
<asrwt>0</asrwt>
<pdfrwt beam="1">  1        2 0.97787158E-01 0.54638781E+02</pdfrwt>
<pdfrwt beam="2">  1       -2 0.18064813E-03 0.54638781E+02</pdfrwt>
<totfact> 0.86268966E+05</totfact>
</mgrwt>
</event>
<event>
 4    1  0.4696545E-002  0.4210929E+02  0.7818608E-02  0.1493239E+00
         -2   -1    0    0  501    0 -0.00000000000E+00  0.00000000000E+00  0.27479060610E+01  0.27479072441E+01  0.25500000000E-02 0. -1.
          2   -1    0    0    0  501  0.00000000000E+00 -0.00000000000E+00 -0.16132211277E+03  0.16132211279E+03  0.25500000000E-02 0. -1.
          2    1    1    2    0  502  0.91727825709E+00 -0.20332651212E+02 -0.58290473421E+02  0.61741699060E+02  0.25500000000E-02 0.  1.
         -2    1    1    2  502    0 -0.91727825709E+00  0.20332651212E+02 -0.10028373329E+03  0.10232832098E+03  0.25500000000E-02 0.  1.
<mgrwt>
<rscale>  0 0.42109292E+02</rscale>
<asrwt>0</asrwt>
<pdfrwt beam="2">  1        2 0.24818779E-01 0.42109292E+02</pdfrwt>
<pdfrwt beam="1">  1       -2 0.42275500E-03 0.42109292E+02</pdfrwt>
<totfact> 0.10524411E+06</totfact>
</mgrwt>
</event>
<event>
 4    1  0.4696545E-002  0.5265238E+02  0.7818608E-02  0.1431539E+00
          2   -1    0    0    0  501  0.00000000000E+00  0.00000000000E+00  0.56362046503E+03  0.56362046503E+03  0.25500000000E-02 0.  1.
         -2   -1    0    0  501    0 -0.00000000000E+00 -0.00000000000E+00 -0.12296707059E+01  0.12296733499E+01  0.25500000000E-02 0.  1.
          2    1    1    2    0  502 -0.10472933111E+02  0.22553690325E+02  0.18846437369E+03  0.19009779439E+03  0.25500000000E-02 0.  1.
         -2    1    1    2  502    0  0.10472933111E+02 -0.22553690325E+02  0.37392642063E+03  0.37475234399E+03  0.25500000000E-02 0.  1.
<mgrwt>
<rscale>  0 0.52652382E+02</rscale>
<asrwt>0</asrwt>
<pdfrwt beam="1">  1        2 0.86710814E-01 0.52652382E+02</pdfrwt>
<pdfrwt beam="2">  1       -2 0.18918037E-03 0.52652382E+02</pdfrwt>
<totfact> 0.91564653E+05</totfact>
</mgrwt>
</event>
<event>
 4    1  0.4696545E-002  0.5068283E+02  0.7818608E-02  0.1441693E+00
          2   -1    0    0    0  501  0.00000000000E+00  0.00000000000E+00  0.20659479460E+04  0.20659479460E+04  0.25500000000E-02 0. -1.
         -2   -1    0    0  501    0 -0.00000000000E+00 -0.00000000000E+00 -0.31083861242E+00  0.31084907185E+00  0.25500000000E-02 0. -1.
          2    1    1    2    0  502 -0.24692031583E+02 -0.56978864861E+01  0.10263905957E+04  0.10267033735E+04  0.25500000000E-02 0. -1.
         -2    1    1    2  502    0  0.24692031583E+02  0.56978864861E+01  0.10392465117E+04  0.10395554216E+04  0.25500000000E-02 0. -1.
<mgrwt>
<rscale>  0 0.50682826E+02</rscale>
<asrwt>0</asrwt>
<pdfrwt beam="1">  1        2 0.31782051E+00 0.50682826E+02</pdfrwt>
<pdfrwt beam="2">  1       -2 0.47824784E-04 0.50682826E+02</pdfrwt>
<totfact> 0.86316266E+05</totfact>
</mgrwt>
</event>
<event>
 4    1  0.4696545E-002  0.5408838E+02  0.7818608E-02  0.1424460E+00
         -2   -1    0    0  501    0 -0.00000000000E+00  0.00000000000E+00  0.23252084429E+03  0.23252084430E+03  0.25500000000E-02 0.  1.
          2   -1    0    0    0  501  0.00000000000E+00 -0.00000000000E+00 -0.31454731809E+01  0.31454742145E+01  0.25500000000E-02 0.  1.
          2    1    1    2    0  502  0.10852727076E+01 -0.26920120227E+02  0.12492214675E+03  0.12779441868E+03  0.25500000000E-02 0.  1.
         -2    1    1    2  502    0 -0.10852727076E+01  0.26920120227E+02  0.10445322436E+03  0.10787189984E+03  0.25500000000E-02 0.  1.
<mgrwt>
<rscale>  0 0.54088380E+02</rscale>
<asrwt>0</asrwt>
<pdfrwt beam="2">  1        2 0.48391903E-03 0.54088380E+02</pdfrwt>
<pdfrwt beam="1">  1       -2 0.35772438E-01 0.54088380E+02</pdfrwt>
<totfact> 0.21750499E+05</totfact>
</mgrwt>
</event>
<event>
 4    1  0.4696545E-002  0.4124834E+02  0.7818608E-02  0.1499221E+00
          2   -1    0    0    0  501  0.00000000000E+00  0.00000000000E+00  0.20257417389E+04  0.20257417389E+04  0.25500000000E-02 0.  1.
         -2   -1    0    0  501    0 -0.00000000000E+00 -0.00000000000E+00 -0.20996788151E+00  0.20998336546E+00  0.25500000000E-02 0.  1.
          2    1    1    2    0  502  0.14366458858E+02 -0.14779455844E+02  0.10484866027E+04  0.10486891739E+04  0.25500000000E-02 0.  1.
         -2    1    1    2  502    0 -0.14366458858E+02  0.14779455844E+02  0.97704516834E+03  0.97726254837E+03  0.25500000000E-02 0.  1.
<mgrwt>
<rscale>  0 0.41248340E+02</rscale>
<asrwt>0</asrwt>
<pdfrwt beam="1">  1        2 0.31165712E+00 0.41248340E+02</pdfrwt>
<pdfrwt beam="2">  1       -2 0.32303472E-04 0.41248340E+02</pdfrwt>
<totfact> 0.14642351E+06</totfact>
</mgrwt>
</event>
<event>
 4    1  0.4696545E-002  0.4596045E+02  0.7818608E-02  0.1468433E+00
          2   -1    0    0    0  501  0.00000000000E+00  0.00000000000E+00  0.22000589654E+02  0.22000589802E+02  0.25500000000E-02 0. -1.
         -2   -1    0    0  501    0 -0.00000000000E+00 -0.00000000000E+00 -0.24003479009E+02  0.24003479145E+02  0.25500000000E-02 0. -1.
          2    1    1    2    0  502 -0.19233699547E+02 -0.82325879159E+01  0.85144173217E+01  0.22587740279E+02  0.25500000000E-02 0. -1.
         -2    1    1    2  502    0  0.19233699547E+02  0.82325879159E+01 -0.10517306677E+02  0.23416328668E+02  0.25500000000E-02 0. -1.
<mgrwt>
<rscale>  0 0.45960448E+02</rscale>
<asrwt>0</asrwt>
<pdfrwt beam="1">  1        2 0.33847061E-02 0.45960448E+02</pdfrwt>
<pdfrwt beam="2">  1       -2 0.36928429E-02 0.45960448E+02</pdfrwt>
<totfact> 0.55793190E+05</totfact>
</mgrwt>
</event>
<event>
 4    1  0.4696545E-002  0.1098009E+03  0.7818608E-02  0.1260939E+00
         -2   -1    0    0  501    0 -0.00000000000E+00  0.00000000000E+00  0.40537361265E+01  0.40537369286E+01  0.25500000000E-02 0.  1.
          2   -1    0    0    0  501  0.00000000000E+00 -0.00000000000E+00 -0.74352622559E+03  0.74352622560E+03  0.25500000000E-02 0.  1.
          2    1    1    2    0  502  0.12791655632E+02 -0.42860938549E+02 -0.15299757841E+03  0.15940183660E+03  0.25500000000E-02 0. -1.
         -2    1    1    2  502    0 -0.12791655632E+02  0.42860938549E+02 -0.58647491106E+03  0.58817812592E+03  0.25500000000E-02 0. -1.
<mgrwt>
<rscale>  0 0.10980090E+03</rscale>
<asrwt>0</asrwt>
<pdfrwt beam="2">  1        2 0.11438854E+00 0.10980090E+03</pdfrwt>
<pdfrwt beam="1">  1       -2 0.62365236E-03 0.10980090E+03</pdfrwt>
<totfact> 0.14654988E+05</totfact>
</mgrwt>
</event>
<event>
 4    1  0.4696545E-002  0.7919288E+02  0.7818608E-02  0.1331358E+00
         -2   -1    0    0  501    0 -0.00000000000E+00  0.00000000000E+00  0.59131084267E+00  0.59131634102E+00  0.25500000000E-02 0. -1.
          2   -1    0    0    0  501  0.00000000000E+00 -0.00000000000E+00 -0.26515167126E+04  0.26515167126E+04  0.25500000000E-02 0. -1.
          2    1    1    2    0  502 -0.38674100786E+02 -0.84660085811E+01 -0.13013482483E+04  0.13019503150E+04  0.25500000000E-02 0. -1.
         -2    1    1    2  502    0  0.38674100786E+02  0.84660085811E+01 -0.13495771535E+04  0.13501577139E+04  0.25500000000E-02 0. -1.
<mgrwt>
<rscale>  0 0.79192875E+02</rscale>
<asrwt>0</asrwt>
<pdfrwt beam="2">  1        2 0.40791613E+00 0.79192875E+02</pdfrwt>
<pdfrwt beam="1">  1       -2 0.90973445E-04 0.79192875E+02</pdfrwt>
<totfact> 0.19431475E+05</totfact>
</mgrwt>
</event>
<event>
 4    1  0.4696545E-002  0.7235309E+02  0.7818608E-02  0.1352269E+00
          2   -1    0    0    0  501  0.00000000000E+00  0.00000000000E+00  0.36915021104E+02  0.36915021192E+02  0.25500000000E-02 0.  1.
         -2   -1    0    0  501    0 -0.00000000000E+00 -0.00000000000E+00 -0.35452845516E+02  0.35452845608E+02  0.25500000000E-02 0.  1.
          2    1    1    2    0  502 -0.66144833075E+01  0.33465334243E+02 -0.11315563127E+02  0.35940533675E+02  0.25500000000E-02 0.  1.
         -2    1    1    2  502    0  0.66144833075E+01 -0.33465334243E+02  0.12777738715E+02  0.36427333125E+02  0.25500000000E-02 0.  1.
<mgrwt>
<rscale>  0 0.72353094E+02</rscale>
<asrwt>0</asrwt>
<pdfrwt beam="1">  1        2 0.56792340E-02 0.72353094E+02</pdfrwt>
<pdfrwt beam="2">  1       -2 0.54542840E-02 0.72353094E+02</pdfrwt>
<totfact> 0.18025397E+05</totfact>
</mgrwt>
</event>
<event>
 4    1  0.4696545E-002  0.4672983E+02  0.7818608E-02  0.1463823E+00
          2   -1    0    0    0  501  0.00000000000E+00  0.00000000000E+00  0.40472810536E+01  0.40472818570E+01  0.25500000000E-02 0. -1.
         -2   -1    0    0  501    0 -0.00000000000E+00 -0.00000000000E+00 -0.13488543152E+03  0.13488543154E+03  0.25500000000E-02 0. -1.
          2    1    1    2    0  502 -0.64302256869E+01  0.21998401420E+02 -0.51911280731E+02  0.56745559660E+02  0.25500000000E-02 0. -1.
         -2    1    1    2  502    0  0.64302256869E+01 -0.21998401420E+02 -0.78926869732E+02  0.82187153739E+02  0.25500000000E-02 0. -1.
<mgrwt>
<rscale>  0 0.46729832E+02</rscale>
<asrwt>0</asrwt>
<pdfrwt beam="1">  1        2 0.62265879E-03 0.46729832E+02</pdfrwt>
<pdfrwt beam="2">  1       -2 0.20751601E-01 0.46729832E+02</pdfrwt>
<totfact> 0.38293261E+05</totfact>
</mgrwt>
</event>
<event>
 4    1  0.4696545E-002  0.4966744E+02  0.7818608E-02  0.1447144E+00
         -2   -1    0    0  501    0 -0.00000000000E+00  0.00000000000E+00  0.75568113997E+00  0.75568544237E+00  0.25500000000E-02 0. -1.
          2   -1    0    0    0  501  0.00000000000E+00 -0.00000000000E+00 -0.81610071732E+03  0.81610071732E+03  0.25500000000E-02 0. -1.
          2    1    1    2    0  502 -0.17545163600E+02  0.13043159857E+02 -0.60140444873E+03  0.60180168473E+03  0.25500000000E-02 0. -1.
         -2    1    1    2  502    0  0.17545163600E+02 -0.13043159857E+02 -0.21394058745E+03  0.21505471803E+03  0.25500000000E-02 0. -1.
<mgrwt>
<rscale>  0 0.49667441E+02</rscale>
<asrwt>0</asrwt>
<pdfrwt beam="2">  1        2 0.12555325E+00 0.49667441E+02</pdfrwt>
<pdfrwt beam="1">  1       -2 0.11625962E-03 0.49667441E+02</pdfrwt>
<totfact> 0.11522037E+06</totfact>
</mgrwt>
</event>
<event>
 4    1  0.4696545E-002  0.6125010E+02  0.7818608E-02  0.1392659E+00
          2   -1    0    0    0  501  0.00000000000E+00  0.00000000000E+00  0.31656423107E+01  0.31656433378E+01  0.25500000000E-02 0.  1.
         -2   -1    0    0  501    0 -0.00000000000E+00 -0.00000000000E+00 -0.29627275197E+03  0.29627275198E+03  0.25500000000E-02 0.  1.
          2    1    1    2    0  502  0.21956660807E+02  0.82011881146E+01 -0.24291829108E+03  0.24404641073E+03  0.25500000000E-02 0.  1.
         -2    1    1    2  502    0 -0.21956660807E+02 -0.82011881146E+01 -0.50188818577E+02  0.55391984591E+02  0.25500000000E-02 0.  1.
<mgrwt>
<rscale>  0 0.61250101E+02</rscale>
<asrwt>0</asrwt>
<pdfrwt beam="1">  1        2 0.48702221E-03 0.61250101E+02</pdfrwt>
<pdfrwt beam="2">  1       -2 0.45580401E-01 0.61250101E+02</pdfrwt>
<totfact> 0.14126305E+05</totfact>
</mgrwt>
</event>
<event>
 4    1  0.4696545E-002  0.6221748E+02  0.7818608E-02  0.1388755E+00
         -2   -1    0    0  501    0 -0.00000000000E+00  0.00000000000E+00  0.11909233839E+02  0.11909234112E+02  0.25500000000E-02 0. -1.
          2   -1    0    0    0  501  0.00000000000E+00 -0.00000000000E+00 -0.81260782354E+02  0.81260782394E+02  0.25500000000E-02 0. -1.
          2    1    1    2    0  502 -0.12392258678E+02  0.18533677119E+02 -0.67164337980E+02  0.70768026435E+02  0.25500000000E-02 0.  1.
         -2    1    1    2  502    0  0.12392258678E+02 -0.18533677119E+02 -0.21872105347E+01  0.22401990071E+02  0.25500000000E-02 0.  1.
<mgrwt>
<rscale>  0 0.62217479E+02</rscale>
<asrwt>0</asrwt>
<pdfrwt beam="2">  1        2 0.12501659E-01 0.62217479E+02</pdfrwt>
<pdfrwt beam="1">  1       -2 0.18321899E-02 0.62217479E+02</pdfrwt>
<totfact> 0.32338424E+05</totfact>
</mgrwt>
</event>
<event>
 4    1  0.4696545E-002  0.6565228E+02  0.7818608E-02  0.1375535E+00
          2   -1    0    0    0  501  0.00000000000E+00  0.00000000000E+00  0.11589754686E+04  0.11589754686E+04  0.25500000000E-02 0.  1.
         -2   -1    0    0  501    0 -0.00000000000E+00 -0.00000000000E+00 -0.92974653281E+00  0.92975002972E+00  0.25500000000E-02 0.  1.
          2    1    1    2    0  502 -0.18738225613E+02 -0.23589454462E+02  0.80935862013E+03  0.80991910673E+03  0.25500000000E-02 0.  1.
         -2    1    1    2  502    0  0.18738225613E+02  0.23589454462E+02  0.34868710197E+03  0.34998611193E+03  0.25500000000E-02 0.  1.
<mgrwt>
<rscale>  0 0.65652280E+02</rscale>
<asrwt>0</asrwt>
<pdfrwt beam="1">  1        2 0.17830250E+00 0.65652280E+02</pdfrwt>
<pdfrwt beam="2">  1       -2 0.14303933E-03 0.65652280E+02</pdfrwt>
<totfact> 0.58391299E+05</totfact>
</mgrwt>
</event>
<event>
 4    1  0.4696545E-002  0.6580038E+02  0.7818608E-02  0.1374986E+00
         -2   -1    0    0  501    0 -0.00000000000E+00  0.00000000000E+00  0.25016189692E+02  0.25016189822E+02  0.25500000000E-02 0.  1.
          2   -1    0    0    0  501  0.00000000000E+00 -0.00000000000E+00 -0.43268878428E+02  0.43268878503E+02  0.25500000000E-02 0.  1.
          2    1    1    2    0  502 -0.69116010801E+01  0.31955960444E+02 -0.12934917904E+02  0.35160570887E+02  0.25500000000E-02 0. -1.
         -2    1    1    2  502    0  0.69116010801E+01 -0.31955960444E+02 -0.53177708315E+01  0.33124497438E+02  0.25500000000E-02 0. -1.
<mgrwt>
<rscale>  0 0.65800379E+02</rscale>
<asrwt>0</asrwt>
<pdfrwt beam="2">  1        2 0.66567505E-02 0.65800379E+02</pdfrwt>
<pdfrwt beam="1">  1       -2 0.38486446E-02 0.65800379E+02</pdfrwt>
<totfact> 0.24170585E+05</totfact>
</mgrwt>
</event>
<event>
 4    1  0.4696545E-002  0.5505147E+02  0.7818608E-02  0.1419856E+00
          2   -1    0    0    0  501  0.00000000000E+00  0.00000000000E+00  0.21634614243E+03  0.21634614244E+03  0.25500000000E-02 0. -1.
         -2   -1    0    0  501    0 -0.00000000000E+00 -0.00000000000E+00 -0.35021007471E+01  0.35021016755E+01  0.25500000000E-02 0. -1.
          2    1    1    2    0  502 -0.14114611512E+02  0.15199268487E+02  0.17868414169E+03  0.17988402519E+03  0.25500000000E-02 0.  1.
         -2    1    1    2  502    0  0.14114611512E+02 -0.15199268487E+02  0.34159899992E+02  0.39964218929E+02  0.25500000000E-02 0.  1.
<mgrwt>
<rscale>  0 0.55051470E+02</rscale>
<asrwt>0</asrwt>
<pdfrwt beam="1">  1        2 0.33284032E-01 0.55051470E+02</pdfrwt>
<pdfrwt beam="2">  1       -2 0.53878463E-03 0.55051470E+02</pdfrwt>
<totfact> 0.59325203E+05</totfact>
</mgrwt>
</event>
<event>
 4    1  0.4696545E-002  0.6471209E+02  0.7818608E-02  0.1379058E+00
         -2   -1    0    0  501    0 -0.00000000000E+00  0.00000000000E+00  0.16686111618E+01  0.16686131102E+01  0.25500000000E-02 0.  1.
          2   -1    0    0    0  501  0.00000000000E+00 -0.00000000000E+00 -0.62741587692E+03  0.62741587692E+03  0.25500000000E-02 0.  1.
          2    1    1    2    0  502 -0.21663098479E+02  0.19321482601E+02 -0.17392246655E+03  0.17632819939E+03  0.25500000000E-02 0.  1.
         -2    1    1    2  502    0  0.21663098479E+02 -0.19321482601E+02 -0.45182479921E+03  0.45275629064E+03  0.25500000000E-02 0.  1.
<mgrwt>
<rscale>  0 0.64712093E+02</rscale>
<asrwt>0</asrwt>
<pdfrwt beam="2">  1        2 0.96525331E-01 0.64712093E+02</pdfrwt>
<pdfrwt beam="1">  1       -2 0.25671006E-03 0.64712093E+02</pdfrwt>
<totfact> 0.56123116E+05</totfact>
</mgrwt>
</event>
<event>
 4    1  0.4696545E-002  0.4140755E+02  0.7818608E-02  0.1498102E+00
          2   -1    0    0    0  501  0.00000000000E+00  0.00000000000E+00  0.62366080350E+02  0.62366080402E+02  0.25500000000E-02 0.  1.
         -2   -1    0    0  501    0 -0.00000000000E+00 -0.00000000000E+00 -0.68730687231E+01  0.68730691961E+01  0.25500000000E-02 0.  1.
          2    1    1    2    0  502  0.12595354613E+02 -0.16376405412E+02  0.30000332088E+02  0.36425946026E+02  0.25500000000E-02 0.  1.
         -2    1    1    2  502    0 -0.12595354613E+02  0.16376405412E+02  0.25492679539E+02  0.32813203572E+02  0.25500000000E-02 0.  1.
<mgrwt>
<rscale>  0 0.41407554E+02</rscale>
<asrwt>0</asrwt>
<pdfrwt beam="1">  1        2 0.95947816E-02 0.41407554E+02</pdfrwt>
<pdfrwt beam="2">  1       -2 0.10573952E-02 0.41407554E+02</pdfrwt>
<totfact> 0.86288479E+05</totfact>
</mgrwt>
</event>
<event>
 4    1  0.4696545E-002  0.5521830E+02  0.7818608E-02  0.1419069E+00
         -2   -1    0    0  501    0 -0.00000000000E+00  0.00000000000E+00  0.16809242881E+02  0.16809243074E+02  0.25500000000E-02 0. -1.
          2   -1    0    0    0  501  0.00000000000E+00 -0.00000000000E+00 -0.45347984566E+02  0.45347984637E+02  0.25500000000E-02 0. -1.
          2    1    1    2    0  502  0.24326262110E+02 -0.10311919521E+02 -0.23286109095E+02  0.35218540511E+02  0.25500000000E-02 0. -1.
         -2    1    1    2  502    0 -0.24326262110E+02  0.10311919521E+02 -0.52526325901E+01  0.26938687200E+02  0.25500000000E-02 0. -1.
<mgrwt>
<rscale>  0 0.55218305E+02</rscale>
<asrwt>0</asrwt>
<pdfrwt beam="2">  1        2 0.69766130E-02 0.55218305E+02</pdfrwt>
<pdfrwt beam="1">  1       -2 0.25860374E-02 0.55218305E+02</pdfrwt>
<totfact> 0.38908530E+05</totfact>
</mgrwt>
</event>
<event>
 4    1  0.4696545E-002  0.6264409E+02  0.7818608E-02  0.1387059E+00
         -2   -1    0    0  501    0 -0.00000000000E+00  0.00000000000E+00  0.47108952809E+03  0.47108952810E+03  0.25500000000E-02 0.  1.
          2   -1    0    0    0  501  0.00000000000E+00 -0.00000000000E+00 -0.20825556023E+01  0.20825571635E+01  0.25500000000E-02 0.  1.
          2    1    1    2    0  502 -0.27427079986E+02  0.14243542428E+02  0.19602792590E+03  0.19844916467E+03  0.25500000000E-02 0. -1.
         -2    1    1    2  502    0  0.27427079986E+02 -0.14243542428E+02  0.27297904659E+03  0.27472292059E+03  0.25500000000E-02 0. -1.
<mgrwt>
<rscale>  0 0.62644090E+02</rscale>
<asrwt>0</asrwt>
<pdfrwt beam="2">  1        2 0.32039367E-03 0.62644090E+02</pdfrwt>
<pdfrwt beam="1">  1       -2 0.72475226E-01 0.62644090E+02</pdfrwt>
<totfact> 0.99065082E+04</totfact>
</mgrwt>
</event>
<event>
 4    1  0.4696545E-002  0.5642490E+02  0.7818608E-02  0.1413478E+00
          2   -1    0    0    0  501  0.00000000000E+00  0.00000000000E+00  0.20718503041E+02  0.20718503198E+02  0.25500000000E-02 0.  1.
         -2   -1    0    0  501    0 -0.00000000000E+00 -0.00000000000E+00 -0.38416980142E+02  0.38416980226E+02  0.25500000000E-02 0.  1.
          2    1    1    2    0  502 -0.26528267815E+02  0.55557499554E+01 -0.17056591467E+02  0.32024095144E+02  0.25500000000E-02 0. -1.
         -2    1    1    2  502    0  0.26528267815E+02 -0.55557499554E+01 -0.64188563352E+00  0.27111388280E+02  0.25500000000E-02 0. -1.
<mgrwt>
<rscale>  0 0.56424900E+02</rscale>
<asrwt>0</asrwt>
<pdfrwt beam="1">  1        2 0.31874620E-02 0.56424900E+02</pdfrwt>
<pdfrwt beam="2">  1       -2 0.59103046E-02 0.56424900E+02</pdfrwt>
<totfact> 0.31962644E+05</totfact>
</mgrwt>
</event>
<event>
 4    1  0.4696545E-002  0.1453530E+03  0.7818608E-02  0.1206302E+00
          2   -1    0    0    0  501  0.00000000000E+00  0.00000000000E+00  0.14488515999E+03  0.14488516001E+03  0.25500000000E-02 0. -1.
         -2   -1    0    0  501    0 -0.00000000000E+00 -0.00000000000E+00 -0.36455590508E+02  0.36455590597E+02  0.25500000000E-02 0. -1.
          2    1    1    2    0  502  0.26906128125E+02 -0.41049323003E+02  0.12108468810E+03  0.13065407895E+03  0.25500000000E-02 0.  1.
         -2    1    1    2  502    0 -0.26906128125E+02  0.41049323003E+02 -0.12655118614E+02  0.50686671654E+02  0.25500000000E-02 0.  1.
<mgrwt>
<rscale>  0 0.14535301E+03</rscale>
<asrwt>0</asrwt>
<pdfrwt beam="1">  1        2 0.22290025E-01 0.14535301E+03</pdfrwt>
<pdfrwt beam="2">  1       -2 0.56085524E-02 0.14535301E+03</pdfrwt>
<totfact> 0.37242382E+04</totfact>
</mgrwt>
</event>
<event>
 4    1  0.4696545E-002  0.1200533E+03  0.7818608E-02  0.1243009E+00
          2   -1    0    0    0  501  0.00000000000E+00  0.00000000000E+00  0.12736603401E+04  0.12736603401E+04  0.25500000000E-02 0.  1.
         -2   -1    0    0  501    0 -0.00000000000E+00 -0.00000000000E+00 -0.28290098037E+01  0.28290109530E+01  0.25500000000E-02 0.  1.
          2    1    1    2    0  502  0.44413648087E+02  0.40183820760E+02  0.59303572133E+03  0.59605258020E+03  0.25500000000E-02 0.  1.
         -2    1    1    2  502    0 -0.44413648087E+02 -0.40183820760E+02  0.67779560899E+03  0.68043677087E+03  0.25500000000E-02 0.  1.
<mgrwt>
<rscale>  0 0.12005329E+03</rscale>
<asrwt>0</asrwt>
<pdfrwt beam="1">  1        2 0.19594762E+00 0.12005329E+03</pdfrwt>
<pdfrwt beam="2">  1       -2 0.43523264E-03 0.12005329E+03</pdfrwt>
<totfact> 0.11835753E+05</totfact>
</mgrwt>
</event>
<event>
 4    1  0.4696545E-002  0.4768365E+02  0.7818608E-02  0.1458251E+00
          2   -1    0    0    0  501  0.00000000000E+00  0.00000000000E+00  0.36005069123E+02  0.36005069214E+02  0.25500000000E-02 0. -1.
         -2   -1    0    0  501    0 -0.00000000000E+00 -0.00000000000E+00 -0.15787572180E+02  0.15787572386E+02  0.25500000000E-02 0. -1.
          2    1    1    2    0  502 -0.33447043661E+00 -0.23018978068E+02  0.33738338871E+01  0.23267315775E+02  0.25500000000E-02 0. -1.
         -2    1    1    2  502    0  0.33447043661E+00  0.23018978068E+02  0.16843663056E+02  0.28525325825E+02  0.25500000000E-02 0. -1.
<mgrwt>
<rscale>  0 0.47683651E+02</rscale>
<asrwt>0</asrwt>
<pdfrwt beam="1">  1        2 0.55392413E-02 0.47683651E+02</pdfrwt>
<pdfrwt beam="2">  1       -2 0.24288573E-02 0.47683651E+02</pdfrwt>
<totfact> 0.54697397E+05</totfact>
</mgrwt>
</event>
<event>
 4    1  0.4696545E-002  0.5107864E+02  0.7818608E-02  0.1439609E+00
         -2   -1    0    0  501    0 -0.00000000000E+00  0.00000000000E+00  0.42733120507E+00  0.42733881327E+00  0.25500000000E-02 0. -1.
          2   -1    0    0    0  501  0.00000000000E+00 -0.00000000000E+00 -0.15263360006E+04  0.15263360006E+04  0.25500000000E-02 0. -1.
          2    1    1    2    0  502  0.29218540777E+01 -0.24605467596E+02 -0.94791447832E+03  0.94823827410E+03  0.25500000000E-02 0. -1.
         -2    1    1    2  502    0 -0.29218540777E+01  0.24605467596E+02 -0.57799419112E+03  0.57852506536E+03  0.25500000000E-02 0. -1.
<mgrwt>
<rscale>  0 0.51078638E+02</rscale>
<asrwt>0</asrwt>
<pdfrwt beam="2">  1        2 0.23481656E+00 0.51078638E+02</pdfrwt>
<pdfrwt beam="1">  1       -2 0.65745070E-04 0.51078638E+02</pdfrwt>
<totfact> 0.10326546E+06</totfact>
</mgrwt>
</event>
<event>
 4    1  0.4696545E-002  0.5250077E+02  0.7818608E-02  0.1432302E+00
          2   -1    0    0    0  501  0.00000000000E+00  0.00000000000E+00  0.95939104306E+02  0.95939104340E+02  0.25500000000E-02 0. -1.
         -2   -1    0    0  501    0 -0.00000000000E+00 -0.00000000000E+00 -0.71824996726E+01  0.71825001252E+01  0.25500000000E-02 0. -1.
          2    1    1    2    0  502  0.11071703261E+02 -0.17089488667E+02  0.11838482920E+02  0.23553830269E+02  0.25500000000E-02 0. -1.
         -2    1    1    2  502    0 -0.11071703261E+02  0.17089488667E+02  0.76918121714E+02  0.79567774196E+02  0.25500000000E-02 0. -1.
<mgrwt>
<rscale>  0 0.52500766E+02</rscale>
<asrwt>0</asrwt>
<pdfrwt beam="1">  1        2 0.14759863E-01 0.52500766E+02</pdfrwt>
<pdfrwt beam="2">  1       -2 0.11050000E-02 0.52500766E+02</pdfrwt>
<totfact> 0.52325614E+05</totfact>
</mgrwt>
</event>
<event>
 4    1  0.4696545E-002  0.7460269E+02  0.7818608E-02  0.1345106E+00
          2   -1    0    0    0  501  0.00000000000E+00  0.00000000000E+00  0.64218085316E+03  0.64218085316E+03  0.25500000000E-02 0. -1.
         -2   -1    0    0  501    0 -0.00000000000E+00 -0.00000000000E+00 -0.21666633499E+01  0.21666648505E+01  0.25500000000E-02 0. -1.
          2    1    1    2    0  502 -0.20599851989E+02 -0.23374723666E+02  0.14286141160E+03  0.14621940548E+03  0.25500000000E-02 0.  1.
         -2    1    1    2  502    0  0.20599851989E+02  0.23374723666E+02  0.49715277821E+03  0.49812811254E+03  0.25500000000E-02 0.  1.
<mgrwt>
<rscale>  0 0.74602686E+02</rscale>
<asrwt>0</asrwt>
<pdfrwt beam="1">  1        2 0.98797262E-01 0.74602686E+02</pdfrwt>
<pdfrwt beam="2">  1       -2 0.33333224E-03 0.74602686E+02</pdfrwt>
<totfact> 0.39203497E+05</totfact>
</mgrwt>
</event>
<event>
 4    1  0.4696545E-002  0.6730385E+02  0.7818608E-02  0.1369509E+00
          2   -1    0    0    0  501  0.00000000000E+00  0.00000000000E+00  0.85551526165E+01  0.85551529965E+01  0.25500000000E-02 0. -1.
         -2   -1    0    0  501    0 -0.00000000000E+00 -0.00000000000E+00 -0.13237075504E+03  0.13237075506E+03  0.25500000000E-02 0. -1.
          2    1    1    2    0  502 -0.20678306887E+02 -0.23016291397E+02 -0.34199723561E+02  0.46119010653E+02  0.25500000000E-02 0.  1.
         -2    1    1    2  502    0  0.20678306887E+02  0.23016291397E+02 -0.89615878860E+02  0.94806897406E+02  0.25500000000E-02 0.  1.
<mgrwt>
<rscale>  0 0.67303850E+02</rscale>
<asrwt>0</asrwt>
<pdfrwt beam="1">  1        2 0.13161775E-02 0.67303850E+02</pdfrwt>
<pdfrwt beam="2">  1       -2 0.20364730E-01 0.67303850E+02</pdfrwt>
<totfact> 0.15646318E+05</totfact>
</mgrwt>
</event>
<event>
 4    1  0.4696545E-002  0.7289734E+02  0.7818608E-02  0.1350509E+00
          2   -1    0    0    0  501  0.00000000000E+00  0.00000000000E+00  0.25614832037E+02  0.25614832164E+02  0.25500000000E-02 0.  1.
         -2   -1    0    0  501    0 -0.00000000000E+00 -0.00000000000E+00 -0.51864697886E+02  0.51864697949E+02  0.25500000000E-02 0.  1.
          2    1    1    2    0  502 -0.35553081672E+02  0.70089448120E+01 -0.89595863406E+01  0.37328556329E+02  0.25500000000E-02 0. -1.
         -2    1    1    2  502    0  0.35553081672E+02 -0.70089448120E+01 -0.17290279509E+02  0.40150973783E+02  0.25500000000E-02 0. -1.
<mgrwt>
<rscale>  0 0.72897340E+02</rscale>
<asrwt>0</asrwt>
<pdfrwt beam="1">  1        2 0.39407434E-02 0.72897340E+02</pdfrwt>
<pdfrwt beam="2">  1       -2 0.79791843E-02 0.72897340E+02</pdfrwt>
<totfact> 0.16315068E+05</totfact>
</mgrwt>
</event>
<event>
 4    1  0.4696545E-002  0.4375200E+02  0.7818608E-02  0.1482286E+00
          2   -1    0    0    0  501  0.00000000000E+00  0.00000000000E+00  0.97803441909E+03  0.97803441910E+03  0.25500000000E-02 0.  1.
         -2   -1    0    0  501    0 -0.00000000000E+00 -0.00000000000E+00 -0.48930388396E+00  0.48931052856E+00  0.25500000000E-02 0.  1.
          2    1    1    2    0  502  0.21376795764E+02  0.23425813555E+01  0.57852434097E+03  0.57892388808E+03  0.25500000000E-02 0. -1.
         -2    1    1    2  502    0 -0.21376795764E+02 -0.23425813555E+01  0.39902077424E+03  0.39959984155E+03  0.25500000000E-02 0. -1.
<mgrwt>
<rscale>  0 0.43751996E+02</rscale>
<asrwt>0</asrwt>
<pdfrwt beam="1">  1        2 0.15046533E+00 0.43751996E+02</pdfrwt>
<pdfrwt beam="2">  1       -2 0.75278783E-04 0.43751996E+02</pdfrwt>
<totfact> 0.16034974E+06</totfact>
</mgrwt>
</event>
<event>
 4    1  0.4696545E-002  0.4450697E+02  0.7818608E-02  0.1477443E+00
          2   -1    0    0    0  501  0.00000000000E+00  0.00000000000E+00  0.73262304412E+03  0.73262304413E+03  0.25500000000E-02 0.  1.
         -2   -1    0    0  501    0 -0.00000000000E+00 -0.00000000000E+00 -0.67594892191E+00  0.67595373179E+00  0.25500000000E-02 0.  1.
          2    1    1    2    0  502  0.90963235114E+01  0.20238475987E+02  0.39392706721E+03  0.39455148372E+03  0.25500000000E-02 0. -1.
         -2    1    1    2  502    0 -0.90963235114E+01 -0.20238475987E+02  0.33802002799E+03  0.33874751414E+03  0.25500000000E-02 0. -1.
<mgrwt>
<rscale>  0 0.44506967E+02</rscale>
<asrwt>0</asrwt>
<pdfrwt beam="1">  1        2 0.11271107E+00 0.44506967E+02</pdfrwt>
<pdfrwt beam="2">  1       -2 0.10399267E-03 0.44506967E+02</pdfrwt>
<totfact> 0.14778885E+06</totfact>
</mgrwt>
</event>
<event>
 4    1  0.4696545E-002  0.4223881E+02  0.7818608E-02  0.1492354E+00
          2   -1    0    0    0  501  0.00000000000E+00  0.00000000000E+00  0.18947330348E+04  0.18947330348E+04  0.25500000000E-02 0. -1.
         -2   -1    0    0  501    0 -0.00000000000E+00 -0.00000000000E+00 -0.23539795679E+00  0.23541176811E+00  0.25500000000E-02 0. -1.
          2    1    1    2    0  502 -0.96696105364E+01  0.18345046846E+02  0.11266301326E+04  0.11268209697E+04  0.25500000000E-02 0. -1.
         -2    1    1    2  502    0  0.96696105364E+01 -0.18345046846E+02  0.76786750420E+03  0.76814747680E+03  0.25500000000E-02 0. -1.
<mgrwt>
<rscale>  0 0.42238815E+02</rscale>
<asrwt>0</asrwt>
<pdfrwt beam="1">  1        2 0.29148433E+00 0.42238815E+02</pdfrwt>
<pdfrwt beam="2">  1       -2 0.36217756E-04 0.42238815E+02</pdfrwt>
<totfact> 0.14609222E+06</totfact>
</mgrwt>
</event>
<event>
 4    1  0.4696545E-002  0.5868872E+02  0.7818608E-02  0.1403418E+00
         -2   -1    0    0  501    0 -0.00000000000E+00  0.00000000000E+00  0.13465800567E+03  0.13465800570E+03  0.25500000000E-02 0. -1.
          2   -1    0    0    0  501  0.00000000000E+00 -0.00000000000E+00 -0.63946536315E+01  0.63946541399E+01  0.25500000000E-02 0. -1.
          2    1    1    2    0  502 -0.20727024037E+02 -0.17799043961E+02  0.89868955996E+02  0.93929999200E+02  0.25500000000E-02 0.  1.
         -2    1    1    2  502    0  0.20727024037E+02  0.17799043961E+02  0.38394396047E+02  0.47122660639E+02  0.25500000000E-02 0.  1.
<mgrwt>
<rscale>  0 0.58688716E+02</rscale>
<asrwt>0</asrwt>
<pdfrwt beam="2">  1        2 0.98379296E-03 0.58688716E+02</pdfrwt>
<pdfrwt beam="1">  1       -2 0.20716615E-01 0.58688716E+02</pdfrwt>
<totfact> 0.21883163E+05</totfact>
</mgrwt>
</event>
<event>
 4    1  0.4696545E-002  0.5641295E+02  0.7818608E-02  0.1413533E+00
          2   -1    0    0    0  501  0.00000000000E+00  0.00000000000E+00  0.41874827903E+03  0.41874827903E+03  0.25500000000E-02 0.  1.
         -2   -1    0    0  501    0 -0.00000000000E+00 -0.00000000000E+00 -0.18999597143E+01  0.18999614255E+01  0.25500000000E-02 0.  1.
          2    1    1    2    0  502 -0.17442427922E+02 -0.16076219622E+02  0.94623283859E+02  0.97551263364E+02  0.25500000000E-02 0.  1.
         -2    1    1    2  502    0  0.17442427922E+02  0.16076219622E+02  0.32222503545E+03  0.32309697710E+03  0.25500000000E-02 0.  1.
<mgrwt>
<rscale>  0 0.56412950E+02</rscale>
<asrwt>0</asrwt>
<pdfrwt beam="1">  1        2 0.64422880E-01 0.56412950E+02</pdfrwt>
<pdfrwt beam="2">  1       -2 0.29230132E-03 0.56412950E+02</pdfrwt>
<totfact> 0.70177177E+05</totfact>
</mgrwt>
</event>
<event>
 4    1  0.4696545E-002  0.4060170E+02  0.7818608E-02  0.1503830E+00
          2   -1    0    0    0  501  0.00000000000E+00  0.00000000000E+00  0.70254802660E+01  0.70254807288E+01  0.25500000000E-02 0.  1.
         -2   -1    0    0  501    0 -0.00000000000E+00 -0.00000000000E+00 -0.58661400797E+02  0.58661400853E+02  0.25500000000E-02 0.  1.
          2    1    1    2    0  502 -0.17520907839E+02 -0.10238265418E+02 -0.24902439733E+02  0.32123757586E+02  0.25500000000E-02 0.  1.
         -2    1    1    2  502    0  0.17520907839E+02  0.10238265418E+02 -0.26733480798E+02  0.33563123996E+02  0.25500000000E-02 0.  1.
<mgrwt>
<rscale>  0 0.40601701E+02</rscale>
<asrwt>0</asrwt>
<pdfrwt beam="1">  1        2 0.10808432E-02 0.40601701E+02</pdfrwt>
<pdfrwt beam="2">  1       -2 0.90248306E-02 0.40601701E+02</pdfrwt>
<totfact> 0.65241977E+05</totfact>
</mgrwt>
</event>
<event>
 4    1  0.4696545E-002  0.9556162E+02  0.7818608E-02  0.1289916E+00
         -2   -1    0    0  501    0 -0.00000000000E+00  0.00000000000E+00  0.31031941730E+02  0.31031941835E+02  0.25500000000E-02 0. -1.
          2   -1    0    0    0  501  0.00000000000E+00 -0.00000000000E+00 -0.73569541846E+02  0.73569541890E+02  0.25500000000E-02 0. -1.
          2    1    1    2    0  502 -0.56398372933E+01  0.43557786626E+02 -0.67648474084E+00  0.43926599898E+02  0.25500000000E-02 0. -1.
         -2    1    1    2  502    0  0.56398372933E+01 -0.43557786626E+02 -0.41861115375E+02  0.60674883827E+02  0.25500000000E-02 0. -1.
<mgrwt>
<rscale>  0 0.95561619E+02</rscale>
<asrwt>0</asrwt>
<pdfrwt beam="2">  1        2 0.11318391E-01 0.95561619E+02</pdfrwt>
<pdfrwt beam="1">  1       -2 0.47741449E-02 0.95561619E+02</pdfrwt>
<totfact> 0.98321929E+04</totfact>
</mgrwt>
</event>
<event>
 4    1  0.4696545E-002  0.4464648E+02  0.7818608E-02  0.1476561E+00
          2   -1    0    0    0  501  0.00000000000E+00  0.00000000000E+00  0.70118524036E+02  0.70118524082E+02  0.25500000000E-02 0.  1.
         -2   -1    0    0  501    0 -0.00000000000E+00 -0.00000000000E+00 -0.71069236492E+01  0.71069241067E+01  0.25500000000E-02 0.  1.
          2    1    1    2    0  502  0.18889599048E+02  0.11374835794E+02  0.37528362339E+02  0.43526794367E+02  0.25500000000E-02 0. -1.
         -2    1    1    2  502    0 -0.18889599048E+02 -0.11374835794E+02  0.25483238048E+02  0.33698653822E+02  0.25500000000E-02 0. -1.
<mgrwt>
<rscale>  0 0.44646479E+02</rscale>
<asrwt>0</asrwt>
<pdfrwt beam="1">  1        2 0.10787465E-01 0.44646479E+02</pdfrwt>
<pdfrwt beam="2">  1       -2 0.10933729E-02 0.44646479E+02</pdfrwt>
<totfact> 0.73230480E+05</totfact>
</mgrwt>
</event>
<event>
 4    1  0.4696545E-002  0.4303387E+02  0.7818608E-02  0.1487003E+00
         -2   -1    0    0  501    0 -0.00000000000E+00  0.00000000000E+00  0.10493463243E+01  0.10493494226E+01  0.25500000000E-02 0.  1.
          2   -1    0    0    0  501  0.00000000000E+00 -0.00000000000E+00 -0.44120594049E+03  0.44120594050E+03  0.25500000000E-02 0.  1.
          2    1    1    2    0  502 -0.19670562845E+02  0.52494955444E+01 -0.14851507213E+03  0.14990401897E+03  0.25500000000E-02 0.  1.
         -2    1    1    2  502    0  0.19670562845E+02 -0.52494955444E+01 -0.29164152203E+03  0.29235127095E+03  0.25500000000E-02 0.  1.
<mgrwt>
<rscale>  0 0.43033871E+02</rscale>
<asrwt>0</asrwt>
<pdfrwt beam="2">  1        2 0.67877689E-01 0.43033871E+02</pdfrwt>
<pdfrwt beam="1">  1       -2 0.16143849E-03 0.43033871E+02</pdfrwt>
<totfact> 0.13949184E+06</totfact>
</mgrwt>
</event>
<event>
 4    1  0.4696545E-002  0.5451359E+02  0.7818608E-02  0.1422413E+00
         -2   -1    0    0  501    0 -0.00000000000E+00  0.00000000000E+00  0.70365011784E+00  0.70365473838E+00  0.25500000000E-02 0.  1.
          2   -1    0    0    0  501  0.00000000000E+00 -0.00000000000E+00 -0.10558237969E+04  0.10558237969E+04  0.25500000000E-02 0.  1.
          2    1    1    2    0  502  0.21945745769E+02  0.73699537975E+01 -0.80640464300E+03  0.80673687175E+03  0.25500000000E-02 0. -1.
         -2    1    1    2  502    0 -0.21945745769E+02 -0.73699537975E+01 -0.24871550380E+03  0.24979057991E+03  0.25500000000E-02 0. -1.
<mgrwt>
<rscale>  0 0.54513594E+02</rscale>
<asrwt>0</asrwt>
<pdfrwt beam="2">  1        2 0.16243316E+00 0.54513594E+02</pdfrwt>
<pdfrwt beam="1">  1       -2 0.10825507E-03 0.54513594E+02</pdfrwt>
<totfact> 0.93564302E+05</totfact>
</mgrwt>
</event>
<event>
 4    1  0.4696545E-002  0.4300166E+02  0.7818608E-02  0.1487217E+00
         -2   -1    0    0  501    0 -0.00000000000E+00  0.00000000000E+00  0.96495677596E+00  0.96496014528E+00  0.25500000000E-02 0.  1.
          2   -1    0    0    0  501  0.00000000000E+00 -0.00000000000E+00 -0.47907317686E+03  0.47907317686E+03  0.25500000000E-02 0.  1.
          2    1    1    2    0  502 -0.17140215932E+02  0.12463958551E+02 -0.27953292021E+03  0.28033514006E+03  0.25500000000E-02 0. -1.
         -2    1    1    2  502    0  0.17140215932E+02 -0.12463958551E+02 -0.19857529987E+03  0.19970299695E+03  0.25500000000E-02 0. -1.
<mgrwt>
<rscale>  0 0.43001661E+02</rscale>
<asrwt>0</asrwt>
<pdfrwt beam="2">  1        2 0.73703376E-01 0.43001661E+02</pdfrwt>
<pdfrwt beam="1">  1       -2 0.14845553E-03 0.43001661E+02</pdfrwt>
<totfact> 0.14345355E+06</totfact>
</mgrwt>
</event>
<event>
 4    1  0.4696545E-002  0.4958318E+02  0.7818608E-02  0.1447603E+00
         -2   -1    0    0  501    0 -0.00000000000E+00  0.00000000000E+00  0.76065245624E+02  0.76065245666E+02  0.25500000000E-02 0. -1.
          2   -1    0    0    0  501  0.00000000000E+00 -0.00000000000E+00 -0.80802079260E+01  0.80802083284E+01  0.25500000000E-02 0. -1.
          2    1    1    2    0  502  0.21738085590E+02  0.11919491162E+02  0.34104808745E+02  0.42163451243E+02  0.25500000000E-02 0.  1.
         -2    1    1    2  502    0 -0.21738085590E+02 -0.11919491162E+02  0.33880228952E+02  0.41982002752E+02  0.25500000000E-02 0.  1.
<mgrwt>
<rscale>  0 0.49583183E+02</rscale>
<asrwt>0</asrwt>
<pdfrwt beam="2">  1        2 0.12431090E-02 0.49583183E+02</pdfrwt>
<pdfrwt beam="1">  1       -2 0.11702345E-01 0.49583183E+02</pdfrwt>
<totfact> 0.38382853E+05</totfact>
</mgrwt>
</event>
<event>
 4    1  0.4696545E-002  0.4907518E+02  0.7818608E-02  0.1450395E+00
          2   -1    0    0    0  501  0.00000000000E+00  0.00000000000E+00  0.15051091253E+04  0.15051091253E+04  0.25500000000E-02 0.  1.
         -2   -1    0    0  501    0 -0.00000000000E+00 -0.00000000000E+00 -0.40002900774E+00  0.40003713519E+00  0.25500000000E-02 0.  1.
          2    1    1    2    0  502 -0.22489971015E+02  0.76251998120E+01  0.94183925666E+03  0.94213859270E+03  0.25500000000E-02 0. -1.
         -2    1    1    2  502    0  0.22489971015E+02 -0.76251998120E+01  0.56286983963E+03  0.56337056973E+03  0.25500000000E-02 0. -1.
<mgrwt>
<rscale>  0 0.49075184E+02</rscale>
<asrwt>0</asrwt>
<pdfrwt beam="1">  1        2 0.23155907E+00 0.49075184E+02</pdfrwt>
<pdfrwt beam="2">  1       -2 0.61542535E-04 0.49075184E+02</pdfrwt>
<totfact> 0.11464001E+06</totfact>
</mgrwt>
</event>
<event>
 4    1  0.4696545E-002  0.4189977E+02  0.7818608E-02  0.1494679E+00
          2   -1    0    0    0  501  0.00000000000E+00  0.00000000000E+00  0.99484718307E+02  0.99484718339E+02  0.25500000000E-02 0.  1.
         -2   -1    0    0  501    0 -0.00000000000E+00 -0.00000000000E+00 -0.44117083557E+01  0.44117090926E+01  0.25500000000E-02 0.  1.
          2    1    1    2    0  502  0.15627238461E+02 -0.13679562114E+02  0.54352858180E+02  0.58185687246E+02  0.25500000000E-02 0. -1.
         -2    1    1    2  502    0 -0.15627238461E+02  0.13679562114E+02  0.40720151771E+02  0.45710740185E+02  0.25500000000E-02 0. -1.
<mgrwt>
<rscale>  0 0.41899766E+02</rscale>
<asrwt>0</asrwt>
<pdfrwt beam="1">  1        2 0.15305341E-01 0.41899766E+02</pdfrwt>
<pdfrwt beam="2">  1       -2 0.67872443E-03 0.41899766E+02</pdfrwt>
<totfact> 0.93071131E+05</totfact>
</mgrwt>
</event>
<event>
 4    1  0.4696545E-002  0.4431028E+02  0.7818608E-02  0.1478694E+00
          2   -1    0    0    0  501  0.00000000000E+00  0.00000000000E+00  0.14846448859E+02  0.14846449078E+02  0.25500000000E-02 0. -1.
         -2   -1    0    0  501    0 -0.00000000000E+00 -0.00000000000E+00 -0.33061792267E+02  0.33061792365E+02  0.25500000000E-02 0. -1.
          2    1    1    2    0  502 -0.21331090397E+02  0.25638268251E+01 -0.14956308529E+02  0.26177849354E+02  0.25500000000E-02 0.  1.
         -2    1    1    2  502    0  0.21331090397E+02 -0.25638268251E+01 -0.32590348793E+01  0.21730392089E+02  0.25500000000E-02 0.  1.
<mgrwt>
<rscale>  0 0.44310279E+02</rscale>
<asrwt>0</asrwt>
<pdfrwt beam="1">  1        2 0.22840691E-02 0.44310279E+02</pdfrwt>
<pdfrwt beam="2">  1       -2 0.50864296E-02 0.44310279E+02</pdfrwt>
<totfact> 0.58022997E+05</totfact>
</mgrwt>
</event>
<event>
 4    1  0.4696545E-002  0.6407722E+02  0.7818608E-02  0.1381477E+00
          2   -1    0    0    0  501  0.00000000000E+00  0.00000000000E+00  0.59221499590E+03  0.59221499591E+03  0.25500000000E-02 0. -1.
         -2   -1    0    0  501    0 -0.00000000000E+00 -0.00000000000E+00 -0.17332756458E+01  0.17332775215E+01  0.25500000000E-02 0. -1.
          2    1    1    2    0  502 -0.31262532834E+02 -0.56597798641E+01  0.33356373953E+03  0.33507334630E+03  0.25500000000E-02 0. -1.
         -2    1    1    2  502    0  0.31262532834E+02  0.56597798641E+01  0.25691798073E+03  0.25887492713E+03  0.25500000000E-02 0. -1.
<mgrwt>
<rscale>  0 0.64077216E+02</rscale>
<asrwt>0</asrwt>
<pdfrwt beam="1">  1        2 0.91109938E-01 0.64077216E+02</pdfrwt>
<pdfrwt beam="2">  1       -2 0.26665812E-03 0.64077216E+02</pdfrwt>
<totfact> 0.56655631E+05</totfact>
</mgrwt>
</event>
<event>
 4    1  0.4696545E-002  0.1007832E+03  0.7818608E-02  0.1278657E+00
         -2   -1    0    0  501    0 -0.00000000000E+00  0.00000000000E+00  0.18630075134E+03  0.18630075136E+03  0.25500000000E-02 0.  1.
          2   -1    0    0    0  501  0.00000000000E+00 -0.00000000000E+00 -0.13630192429E+02  0.13630192667E+02  0.25500000000E-02 0.  1.
          2    1    1    2    0  502  0.22600914155E+02  0.27697095266E+02  0.15879682019E+02  0.39116425122E+02  0.25500000000E-02 0. -1.
         -2    1    1    2  502    0 -0.22600914155E+02 -0.27697095266E+02  0.15679087689E+03  0.16081451890E+03  0.25500000000E-02 0. -1.
<mgrwt>
<rscale>  0 0.10078324E+03</rscale>
<asrwt>0</asrwt>
<pdfrwt beam="2">  1        2 0.20969529E-02 0.10078324E+03</pdfrwt>
<pdfrwt beam="1">  1       -2 0.28661652E-01 0.10078324E+03</pdfrwt>
<totfact> 0.49730938E+04</totfact>
</mgrwt>
</event>
<event>
 4    1  0.4696545E-002  0.4507945E+02  0.7818608E-02  0.1473846E+00
         -2   -1    0    0  501    0 -0.00000000000E+00  0.00000000000E+00  0.37005337602E+00  0.37006216181E+00  0.25500000000E-02 0. -1.
          2   -1    0    0    0  501  0.00000000000E+00 -0.00000000000E+00 -0.13728647622E+04  0.13728647622E+04  0.25500000000E-02 0. -1.
          2    1    1    2    0  502  0.12781460532E+02  0.16081339249E+02 -0.40364414487E+03  0.40416651383E+03  0.25500000000E-02 0.  1.
         -2    1    1    2  502    0 -0.12781460532E+02 -0.16081339249E+02 -0.96885056394E+03  0.96906831052E+03  0.25500000000E-02 0.  1.
<mgrwt>
<rscale>  0 0.45079453E+02</rscale>
<asrwt>0</asrwt>
<pdfrwt beam="2">  1        2 0.21120589E+00 0.45079453E+02</pdfrwt>
<pdfrwt beam="1">  1       -2 0.56933064E-04 0.45079453E+02</pdfrwt>
<totfact> 0.14526117E+06</totfact>
</mgrwt>
</event>
<event>
 4    1  0.4696545E-002  0.6306754E+02  0.7818608E-02  0.1385392E+00
          2   -1    0    0    0  501  0.00000000000E+00  0.00000000000E+00  0.19275255854E+02  0.19275256022E+02  0.25500000000E-02 0. -1.
         -2   -1    0    0  501    0 -0.00000000000E+00 -0.00000000000E+00 -0.51588348423E+02  0.51588348486E+02  0.25500000000E-02 0. -1.
          2    1    1    2    0  502 -0.81184316077E+01  0.26353088199E+02 -0.33343971867E+02  0.43269095851E+02  0.25500000000E-02 0. -1.
         -2    1    1    2  502    0  0.81184316077E+01 -0.26353088199E+02  0.10308792976E+01  0.27594508657E+02  0.25500000000E-02 0. -1.
<mgrwt>
<rscale>  0 0.63067539E+02</rscale>
<asrwt>0</asrwt>
<pdfrwt beam="1">  1        2 0.29654240E-02 0.63067539E+02</pdfrwt>
<pdfrwt beam="2">  1       -2 0.79366689E-02 0.63067539E+02</pdfrwt>
<totfact> 0.23169913E+05</totfact>
</mgrwt>
</event>
<event>
 4    1  0.4696545E-002  0.4133992E+02  0.7818608E-02  0.1498576E+00
         -2   -1    0    0  501    0 -0.00000000000E+00  0.00000000000E+00  0.46678154441E+01  0.46678161407E+01  0.25500000000E-02 0. -1.
          2   -1    0    0    0  501  0.00000000000E+00 -0.00000000000E+00 -0.91530420946E+02  0.91530420982E+02  0.25500000000E-02 0. -1.
          2    1    1    2    0  502 -0.12895664170E+01  0.20500890712E+02 -0.48787280209E+02  0.52935321084E+02  0.25500000000E-02 0.  1.
         -2    1    1    2  502    0  0.12895664170E+01 -0.20500890712E+02 -0.38075325293E+02  0.43262916039E+02  0.25500000000E-02 0.  1.
<mgrwt>
<rscale>  0 0.41339915E+02</rscale>
<asrwt>0</asrwt>
<pdfrwt beam="2">  1        2 0.14081602E-01 0.41339915E+02</pdfrwt>
<pdfrwt beam="1">  1       -2 0.71812558E-03 0.41339915E+02</pdfrwt>
<totfact> 0.94259648E+05</totfact>
</mgrwt>
</event>
<event>
 4    1  0.4696545E-002  0.4758689E+02  0.7818608E-02  0.1458809E+00
          2   -1    0    0    0  501  0.00000000000E+00  0.00000000000E+00  0.19179553795E+04  0.19179553795E+04  0.25500000000E-02 0.  1.
         -2   -1    0    0  501    0 -0.00000000000E+00 -0.00000000000E+00 -0.29516715913E+00  0.29517817387E+00  0.25500000000E-02 0.  1.
          2    1    1    2    0  502 -0.20463684870E+02  0.11319140185E+02  0.11356579509E+04  0.11358987044E+04  0.25500000000E-02 0.  1.
         -2    1    1    2  502    0  0.20463684870E+02 -0.11319140185E+02  0.78200226145E+03  0.78235185323E+03  0.25500000000E-02 0.  1.
<mgrwt>
<rscale>  0 0.47586889E+02</rscale>
<asrwt>0</asrwt>
<pdfrwt beam="1">  1        2 0.29507710E+00 0.47586889E+02</pdfrwt>
<pdfrwt beam="2">  1       -2 0.45410097E-04 0.47586889E+02</pdfrwt>
<totfact> 0.10787545E+06</totfact>
</mgrwt>
</event>
<event>
 4    1  0.4696545E-002  0.5398717E+02  0.7818608E-02  0.1424950E+00
         -2   -1    0    0  501    0 -0.00000000000E+00  0.00000000000E+00  0.30073952797E+02  0.30073952905E+02  0.25500000000E-02 0. -1.
          2   -1    0    0    0  501  0.00000000000E+00 -0.00000000000E+00 -0.24228730954E+02  0.24228731088E+02  0.25500000000E-02 0. -1.
          2    1    1    2    0  502  0.22412798879E+02  0.94895979973E+01 -0.88189855407E+01  0.25887459052E+02  0.25500000000E-02 0. -1.
         -2    1    1    2  502    0 -0.22412798879E+02 -0.94895979973E+01  0.14664207384E+02  0.28415224940E+02  0.25500000000E-02 0. -1.
<mgrwt>
<rscale>  0 0.53987173E+02</rscale>
<asrwt>0</asrwt>
<pdfrwt beam="2">  1        2 0.37274971E-02 0.53987173E+02</pdfrwt>
<pdfrwt beam="1">  1       -2 0.46267620E-02 0.53987173E+02</pdfrwt>
<totfact> 0.36995956E+05</totfact>
</mgrwt>
</event>
<event>
 4    1  0.4696545E-002  0.6930537E+02  0.7818608E-02  0.1362471E+00
         -2   -1    0    0  501    0 -0.00000000000E+00  0.00000000000E+00  0.39431508991E+02  0.39431509074E+02  0.25500000000E-02 0. -1.
          2   -1    0    0    0  501  0.00000000000E+00 -0.00000000000E+00 -0.30453016736E+02  0.30453016843E+02  0.25500000000E-02 0. -1.
          2    1    1    2    0  502  0.25050224470E+02 -0.15993189903E+01 -0.19600494220E+02  0.31847306753E+02  0.25500000000E-02 0.  1.
         -2    1    1    2  502    0 -0.25050224470E+02  0.15993189903E+01  0.28578986476E+02  0.38037219164E+02  0.25500000000E-02 0.  1.
<mgrwt>
<rscale>  0 0.69305365E+02</rscale>
<asrwt>0</asrwt>
<pdfrwt beam="2">  1        2 0.46850795E-02 0.69305365E+02</pdfrwt>
<pdfrwt beam="1">  1       -2 0.60663860E-02 0.69305365E+02</pdfrwt>
<totfact> 0.19509562E+05</totfact>
</mgrwt>
</event>
<event>
 4    1  0.4696545E-002  0.6637760E+02  0.7818608E-02  0.1372863E+00
          2   -1    0    0    0  501  0.00000000000E+00  0.00000000000E+00  0.41207387446E+03  0.41207387447E+03  0.25500000000E-02 0. -1.
         -2   -1    0    0  501    0 -0.00000000000E+00 -0.00000000000E+00 -0.26730548128E+01  0.26730560291E+01  0.25500000000E-02 0. -1.
          2    1    1    2    0  502 -0.32665830140E+02 -0.57589269402E+01  0.19764618912E+03  0.20041017384E+03  0.25500000000E-02 0. -1.
         -2    1    1    2  502    0  0.32665830140E+02  0.57589269402E+01  0.21175463053E+03  0.21433675666E+03  0.25500000000E-02 0. -1.
<mgrwt>
<rscale>  0 0.66377596E+02</rscale>
<asrwt>0</asrwt>
<pdfrwt beam="1">  1        2 0.63395931E-01 0.66377596E+02</pdfrwt>
<pdfrwt beam="2">  1       -2 0.41123962E-03 0.66377596E+02</pdfrwt>
<totfact> 0.46175969E+05</totfact>
</mgrwt>
</event>
<event>
 4    1  0.4696545E-002  0.1150864E+03  0.7818608E-02  0.1251430E+00
          2   -1    0    0    0  501  0.00000000000E+00  0.00000000000E+00  0.76619288506E+03  0.76619288507E+03  0.25500000000E-02 0. -1.
         -2   -1    0    0  501    0 -0.00000000000E+00 -0.00000000000E+00 -0.43216501757E+01  0.43216509280E+01  0.25500000000E-02 0. -1.
          2    1    1    2    0  502  0.50300341273E+02 -0.26515321926E+02  0.32179425795E+03  0.32677933087E+03  0.25500000000E-02 0.  1.
         -2    1    1    2  502    0 -0.50300341273E+02  0.26515321926E+02  0.44007697694E+03  0.44373520512E+03  0.25500000000E-02 0.  1.
<mgrwt>
<rscale>  0 0.11508637E+03</rscale>
<asrwt>0</asrwt>
<pdfrwt beam="1">  1        2 0.11787577E+00 0.11508637E+03</pdfrwt>
<pdfrwt beam="2">  1       -2 0.66486962E-03 0.11508637E+03</pdfrwt>
<totfact> 0.12992938E+05</totfact>
</mgrwt>
</event>
<event>
 4    1  0.4696545E-002  0.6055791E+02  0.7818608E-02  0.1395505E+00
         -2   -1    0    0  501    0 -0.00000000000E+00  0.00000000000E+00  0.18401461030E+02  0.18401461207E+02  0.25500000000E-02 0. -1.
          2   -1    0    0    0  501  0.00000000000E+00 -0.00000000000E+00 -0.49822956127E+02  0.49822956193E+02  0.25500000000E-02 0. -1.
          2    1    1    2    0  502  0.18527547459E+02  0.77554774204E+01  0.98160254509E+01  0.22355576643E+02  0.25500000000E-02 0.  1.
         -2    1    1    2  502    0 -0.18527547459E+02 -0.77554774204E+01 -0.41237520548E+02  0.45868840756E+02  0.25500000000E-02 0.  1.
<mgrwt>
<rscale>  0 0.60557913E+02</rscale>
<asrwt>0</asrwt>
<pdfrwt beam="2">  1        2 0.76650701E-02 0.60557913E+02</pdfrwt>
<pdfrwt beam="1">  1       -2 0.28309940E-02 0.60557913E+02</pdfrwt>
<totfact> 0.31078980E+05</totfact>
</mgrwt>
</event>
<event>
 4    1  0.4696545E-002  0.4377622E+02  0.7818608E-02  0.1482129E+00
          2   -1    0    0    0  501  0.00000000000E+00  0.00000000000E+00  0.67791194120E+03  0.67791194120E+03  0.25500000000E-02 0. -1.
         -2   -1    0    0  501    0 -0.00000000000E+00 -0.00000000000E+00 -0.70671106960E+00  0.70671567012E+00  0.25500000000E-02 0. -1.
          2    1    1    2    0  502  0.19590917470E+02 -0.85433271237E+01  0.26540276871E+03  0.26626194270E+03  0.25500000000E-02 0. -1.
         -2    1    1    2  502    0 -0.19590917470E+02  0.85433271237E+01  0.41180246143E+03  0.41235671418E+03  0.25500000000E-02 0. -1.
<mgrwt>
<rscale>  0 0.43776223E+02</rscale>
<asrwt>0</asrwt>
<pdfrwt beam="1">  1        2 0.10429432E+00 0.43776223E+02</pdfrwt>
<pdfrwt beam="2">  1       -2 0.10872495E-03 0.43776223E+02</pdfrwt>
<totfact> 0.15126212E+06</totfact>
</mgrwt>
</event>
<event>
 4    1  0.4696545E-002  0.6999097E+02  0.7818608E-02  0.1360124E+00
          2   -1    0    0    0  501  0.00000000000E+00  0.00000000000E+00  0.19604887624E+03  0.19604887626E+03  0.25500000000E-02 0.  1.
         -2   -1    0    0  501    0 -0.00000000000E+00 -0.00000000000E+00 -0.62468295468E+01  0.62468300673E+01  0.25500000000E-02 0.  1.
          2    1    1    2    0  502 -0.30085921770E+02 -0.17845283782E+02  0.97886756446E+02  0.10394918920E+03  0.25500000000E-02 0.  1.
         -2    1    1    2  502    0  0.30085921770E+02  0.17845283782E+02  0.91915290249E+02  0.98346517123E+02  0.25500000000E-02 0.  1.
<mgrwt>
<rscale>  0 0.69990970E+02</rscale>
<asrwt>0</asrwt>
<pdfrwt beam="1">  1        2 0.30161363E-01 0.69990970E+02</pdfrwt>
<pdfrwt beam="2">  1       -2 0.96105082E-03 0.69990970E+02</pdfrwt>
<totfact> 0.30950810E+05</totfact>
</mgrwt>
</event>
<event>
 4    1  0.4696545E-002  0.4972149E+02  0.7818608E-02  0.1446850E+00
          2   -1    0    0    0  501  0.00000000000E+00  0.00000000000E+00  0.17551062875E+04  0.17551062875E+04  0.25500000000E-02 0.  1.
         -2   -1    0    0  501    0 -0.00000000000E+00 -0.00000000000E+00 -0.35214314755E+00  0.35215238018E+00  0.25500000000E-02 0.  1.
          2    1    1    2    0  502 -0.23675697644E+02 -0.67023745076E+01  0.75207238187E+03  0.75247480227E+03  0.25500000000E-02 0. -1.
         -2    1    1    2  502    0  0.23675697644E+02  0.67023745076E+01  0.10026817625E+04  0.10029836376E+04  0.25500000000E-02 0. -1.
<mgrwt>
<rscale>  0 0.49721495E+02</rscale>
<asrwt>0</asrwt>
<pdfrwt beam="1">  1        2 0.27001186E+00 0.49721495E+02</pdfrwt>
<pdfrwt beam="2">  1       -2 0.54177481E-04 0.49721495E+02</pdfrwt>
<totfact> 0.10299362E+06</totfact>
</mgrwt>
</event>
<event>
 4    1  0.4696545E-002  0.4713923E+02  0.7818608E-02  0.1461412E+00
          2   -1    0    0    0  501  0.00000000000E+00  0.00000000000E+00  0.11054549764E+02  0.11054550058E+02  0.25500000000E-02 0.  1.
         -2   -1    0    0  501    0 -0.00000000000E+00 -0.00000000000E+00 -0.50253223278E+02  0.50253223343E+02  0.25500000000E-02 0.  1.
          2    1    1    2    0  502 -0.11949847814E+02  0.18590161140E+02 -0.30255569411E+02  0.37467218216E+02  0.25500000000E-02 0.  1.
         -2    1    1    2  502    0  0.11949847814E+02 -0.18590161140E+02 -0.89431041036E+01  0.23840555184E+02  0.25500000000E-02 0.  1.
<mgrwt>
<rscale>  0 0.47139231E+02</rscale>
<asrwt>0</asrwt>
<pdfrwt beam="1">  1        2 0.17007000E-02 0.47139231E+02</pdfrwt>
<pdfrwt beam="2">  1       -2 0.77312651E-02 0.47139231E+02</pdfrwt>
<totfact> 0.46909671E+05</totfact>
</mgrwt>
</event>
<event>
 4    1  0.4696545E-002  0.4616394E+02  0.7818608E-02  0.1467204E+00
         -2   -1    0    0  501    0 -0.00000000000E+00  0.00000000000E+00  0.16972486944E+04  0.16972486944E+04  0.25500000000E-02 0.  1.
          2   -1    0    0    0  501  0.00000000000E+00 -0.00000000000E+00 -0.31390124379E+00  0.31391160117E+00  0.25500000000E-02 0.  1.
          2    1    1    2    0  502  0.15555952772E+02 -0.15225273090E+02  0.56605890131E+03  0.56647725141E+03  0.25500000000E-02 0.  1.
         -2    1    1    2  502    0 -0.15555952772E+02  0.15225273090E+02  0.11308758918E+04  0.11310853546E+04  0.25500000000E-02 0.  1.
<mgrwt>
<rscale>  0 0.46163937E+02</rscale>
<asrwt>0</asrwt>
<pdfrwt beam="2">  1        2 0.48292524E-04 0.46163937E+02</pdfrwt>
<pdfrwt beam="1">  1       -2 0.26111936E+00 0.46163937E+02</pdfrwt>
<totfact> 0.47549613E+04</totfact>
</mgrwt>
</event>
<event>
 4    1  0.4696545E-002  0.6734892E+02  0.7818608E-02  0.1369347E+00
          2   -1    0    0    0  501  0.00000000000E+00  0.00000000000E+00  0.27215123845E+03  0.27215123847E+03  0.25500000000E-02 0.  1.
         -2   -1    0    0  501    0 -0.00000000000E+00 -0.00000000000E+00 -0.41666878551E+01  0.41666886354E+01  0.25500000000E-02 0.  1.
          2    1    1    2    0  502 -0.23140285288E+02  0.17775887847E+02  0.20295250144E+03  0.20503944215E+03  0.25500000000E-02 0. -1.
         -2    1    1    2  502    0  0.23140285288E+02 -0.17775887847E+02  0.65032049161E+02  0.71278484948E+02  0.25500000000E-02 0. -1.
<mgrwt>
<rscale>  0 0.67348923E+02</rscale>
<asrwt>0</asrwt>
<pdfrwt beam="1">  1        2 0.41869416E-01 0.67348923E+02</pdfrwt>
<pdfrwt beam="2">  1       -2 0.64102904E-03 0.67348923E+02</pdfrwt>
<totfact> 0.38396231E+05</totfact>
</mgrwt>
</event>
<event>
 4    1  0.4696545E-002  0.4796871E+02  0.7818608E-02  0.1456616E+00
         -2   -1    0    0  501    0 -0.00000000000E+00  0.00000000000E+00  0.15000599090E+02  0.15000599307E+02  0.25500000000E-02 0. -1.
          2   -1    0    0    0  501  0.00000000000E+00 -0.00000000000E+00 -0.38348421219E+02  0.38348421304E+02  0.25500000000E-02 0. -1.
          2    1    1    2    0  502  0.13248278721E+02  0.18744629560E+02 -0.39388786199E+01  0.23289327979E+02  0.25500000000E-02 0. -1.
         -2    1    1    2  502    0 -0.13248278721E+02 -0.18744629560E+02 -0.19408943510E+02  0.30059692632E+02  0.25500000000E-02 0. -1.
<mgrwt>
<rscale>  0 0.47968711E+02</rscale>
<asrwt>0</asrwt>
<pdfrwt beam="2">  1        2 0.58997571E-02 0.47968711E+02</pdfrwt>
<pdfrwt beam="1">  1       -2 0.23077845E-02 0.47968711E+02</pdfrwt>
<totfact> 0.54432174E+05</totfact>
</mgrwt>
</event>
<event>
 4    1  0.4696545E-002  0.4506479E+02  0.7818608E-02  0.1473938E+00
          2   -1    0    0    0  501  0.00000000000E+00  0.00000000000E+00  0.17890006333E+02  0.17890006514E+02  0.25500000000E-02 0.  1.
         -2   -1    0    0  501    0 -0.00000000000E+00 -0.00000000000E+00 -0.28379470498E+02  0.28379470613E+02  0.25500000000E-02 0.  1.
          2    1    1    2    0  502 -0.22522176790E+02  0.21857962891E+00 -0.45851552028E+01  0.22985210009E+02  0.25500000000E-02 0. -1.
         -2    1    1    2  502    0  0.22522176790E+02 -0.21857962891E+00 -0.59043089628E+01  0.23284267118E+02  0.25500000000E-02 0. -1.
<mgrwt>
<rscale>  0 0.45064794E+02</rscale>
<asrwt>0</asrwt>
<pdfrwt beam="1">  1        2 0.27523087E-02 0.45064794E+02</pdfrwt>
<pdfrwt beam="2">  1       -2 0.43660724E-02 0.45064794E+02</pdfrwt>
<totfact> 0.57012647E+05</totfact>
</mgrwt>
</event>
<event>
 4    1  0.4696545E-002  0.7752793E+02  0.7818608E-02  0.1336217E+00
         -2   -1    0    0  501    0 -0.00000000000E+00  0.00000000000E+00  0.20625963229E+01  0.20625978992E+01  0.25500000000E-02 0.  1.
          2   -1    0    0    0  501  0.00000000000E+00 -0.00000000000E+00 -0.72852087144E+03  0.72852087145E+03  0.25500000000E-02 0.  1.
          2    1    1    2    0  502 -0.34951512520E+02 -0.13466007621E+02 -0.26913409507E+03  0.27172799400E+03  0.25500000000E-02 0.  1.
         -2    1    1    2  502    0  0.34951512520E+02  0.13466007621E+02 -0.45732418005E+03  0.45885547535E+03  0.25500000000E-02 0.  1.
<mgrwt>
<rscale>  0 0.77527932E+02</rscale>
<asrwt>0</asrwt>
<pdfrwt beam="2">  1        2 0.11207993E+00 0.77527932E+02</pdfrwt>
<pdfrwt beam="1">  1       -2 0.31732322E-03 0.77527932E+02</pdfrwt>
<totfact> 0.36566439E+05</totfact>
</mgrwt>
</event>
<event>
 4    1  0.4696545E-002  0.4408185E+02  0.7818608E-02  0.1480156E+00
          2   -1    0    0    0  501  0.00000000000E+00  0.00000000000E+00  0.26326419119E+01  0.26326431469E+01  0.25500000000E-02 0.  1.
         -2   -1    0    0  501    0 -0.00000000000E+00 -0.00000000000E+00 -0.18453030892E+03  0.18453030894E+03  0.25500000000E-02 0.  1.
          2    1    1    2    0  502  0.38018651683E+01  0.20691248620E+02 -0.63035968297E+02  0.66453858081E+02  0.25500000000E-02 0.  1.
         -2    1    1    2  502    0 -0.38018651683E+01 -0.20691248620E+02 -0.11886169871E+03  0.12070909401E+03  0.25500000000E-02 0.  1.
<mgrwt>
<rscale>  0 0.44081849E+02</rscale>
<asrwt>0</asrwt>
<pdfrwt beam="1">  1        2 0.40502208E-03 0.44081849E+02</pdfrwt>
<pdfrwt beam="2">  1       -2 0.28389268E-01 0.44081849E+02</pdfrwt>
<totfact> 0.39601509E+05</totfact>
</mgrwt>
</event>
<event>
 4    1  0.4696545E-002  0.4418677E+02  0.7818608E-02  0.1479483E+00
         -2   -1    0    0  501    0 -0.00000000000E+00  0.00000000000E+00  0.14650173238E+01  0.14650195430E+01  0.25500000000E-02 0.  1.
          2   -1    0    0    0  501  0.00000000000E+00 -0.00000000000E+00 -0.33318197821E+03  0.33318197822E+03  0.25500000000E-02 0.  1.
          2    1    1    2    0  502  0.13135395610E+02 -0.16111340387E+02 -0.10918191779E+03  0.11114317381E+03  0.25500000000E-02 0. -1.
         -2    1    1    2  502    0 -0.13135395610E+02  0.16111340387E+02 -0.22253504310E+03  0.22350382395E+03  0.25500000000E-02 0. -1.
<mgrwt>
<rscale>  0 0.44186774E+02</rscale>
<asrwt>0</asrwt>
<pdfrwt beam="2">  1        2 0.51258706E-01 0.44186774E+02</pdfrwt>
<pdfrwt beam="1">  1       -2 0.22538772E-03 0.44186774E+02</pdfrwt>
<totfact> 0.11902175E+06</totfact>
</mgrwt>
</event>
<event>
 4    1  0.4696545E-002  0.4258499E+02  0.7818608E-02  0.1490007E+00
          2   -1    0    0    0  501  0.00000000000E+00  0.00000000000E+00  0.43711724973E+00  0.43712468760E+00  0.25500000000E-02 0. -1.
         -2   -1    0    0  501    0 -0.00000000000E+00 -0.00000000000E+00 -0.10371736462E+04  0.10371736462E+04  0.25500000000E-02 0. -1.
          2    1    1    2    0  502 -0.10061037053E+02 -0.18616608970E+02 -0.46087489494E+03  0.46136045711E+03  0.25500000000E-02 0.  1.
         -2    1    1    2  502    0  0.10061037053E+02  0.18616608970E+02 -0.57586163399E+03  0.57625031376E+03  0.25500000000E-02 0.  1.
<mgrwt>
<rscale>  0 0.42584990E+02</rscale>
<asrwt>0</asrwt>
<pdfrwt beam="1">  1        2 0.67250210E-04 0.42584990E+02</pdfrwt>
<pdfrwt beam="2">  1       -2 0.15956321E+00 0.42584990E+02</pdfrwt>
<totfact> 0.12079816E+05</totfact>
</mgrwt>
</event>
<event>
 4    1  0.4696545E-002  0.4111294E+02  0.7818608E-02  0.1500178E+00
          2   -1    0    0    0  501  0.00000000000E+00  0.00000000000E+00  0.21101903905E+01  0.21101919313E+01  0.25500000000E-02 0.  1.
         -2   -1    0    0  501    0 -0.00000000000E+00 -0.00000000000E+00 -0.20025129064E+03  0.20025129065E+03  0.25500000000E-02 0.  1.
          2    1    1    2    0  502  0.18495087872E+02  0.89656744447E+01 -0.97387609663E+02  0.99532899667E+02  0.25500000000E-02 0.  1.
         -2    1    1    2  502    0 -0.18495087872E+02 -0.89656744447E+01 -0.10075349058E+03  0.10282858292E+03  0.25500000000E-02 0.  1.
<mgrwt>
<rscale>  0 0.41112942E+02</rscale>
<asrwt>0</asrwt>
<pdfrwt beam="1">  1        2 0.32464495E-03 0.41112942E+02</pdfrwt>
<pdfrwt beam="2">  1       -2 0.30807876E-01 0.41112942E+02</pdfrwt>
<totfact> 0.45366987E+05</totfact>
</mgrwt>
</event>
<event>
 4    1  0.4696545E-002  0.4835918E+02  0.7818608E-02  0.1454398E+00
         -2   -1    0    0  501    0 -0.00000000000E+00  0.00000000000E+00  0.19960927919E+04  0.19960927919E+04  0.25500000000E-02 0. -1.
          2   -1    0    0    0  501  0.00000000000E+00 -0.00000000000E+00 -0.29289293810E+00  0.29290403837E+00  0.25500000000E-02 0. -1.
          2    1    1    2    0  502 -0.22896551769E+02  0.77624405676E+01  0.98218052624E+03  0.98247803726E+03  0.25500000000E-02 0. -1.
         -2    1    1    2  502    0  0.22896551769E+02 -0.77624405676E+01  0.10136193727E+04  0.10139076587E+04  0.25500000000E-02 0. -1.
<mgrwt>
<rscale>  0 0.48359180E+02</rscale>
<asrwt>0</asrwt>
<pdfrwt beam="2">  1        2 0.45064031E-04 0.48359180E+02</pdfrwt>
<pdfrwt beam="1">  1       -2 0.30707263E+00 0.48359180E+02</pdfrwt>
<totfact> 0.29462027E+04</totfact>
</mgrwt>
</event>
<event>
 4    1  0.4696545E-002  0.5920678E+02  0.7818608E-02  0.1401191E+00
         -2   -1    0    0  501    0 -0.00000000000E+00  0.00000000000E+00  0.51461428432E+02  0.51461428496E+02  0.25500000000E-02 0. -1.
          2   -1    0    0    0  501  0.00000000000E+00 -0.00000000000E+00 -0.17029469328E+02  0.17029469519E+02  0.25500000000E-02 0. -1.
          2    1    1    2    0  502 -0.16555013675E+02  0.22894683550E+02  0.27440869538E+02  0.39385737776E+02  0.25500000000E-02 0. -1.
         -2    1    1    2  502    0  0.16555013675E+02 -0.22894683550E+02  0.69910895663E+01  0.29105160238E+02  0.25500000000E-02 0. -1.
<mgrwt>
<rscale>  0 0.59206784E+02</rscale>
<asrwt>0</asrwt>
<pdfrwt beam="2">  1        2 0.26199184E-02 0.59206784E+02</pdfrwt>
<pdfrwt beam="1">  1       -2 0.79171429E-02 0.59206784E+02</pdfrwt>
<totfact> 0.26997418E+05</totfact>
</mgrwt>
</event>
<event>
 4    1  0.4696545E-002  0.5460714E+02  0.7818608E-02  0.1421966E+00
         -2   -1    0    0  501    0 -0.00000000000E+00  0.00000000000E+00  0.32009534996E+01  0.32009545153E+01  0.25500000000E-02 0. -1.
          2   -1    0    0    0  501  0.00000000000E+00 -0.00000000000E+00 -0.23289463943E+03  0.23289463945E+03  0.25500000000E-02 0. -1.
          2    1    1    2    0  502 -0.22449923736E+02  0.72097171508E+01 -0.55328638155E+02  0.60143472661E+02  0.25500000000E-02 0.  1.
         -2    1    1    2  502    0  0.22449923736E+02 -0.72097171508E+01 -0.17436504778E+03  0.17595212130E+03  0.25500000000E-02 0.  1.
<mgrwt>
<rscale>  0 0.54607144E+02</rscale>
<asrwt>0</asrwt>
<pdfrwt beam="2">  1        2 0.35829931E-01 0.54607144E+02</pdfrwt>
<pdfrwt beam="1">  1       -2 0.49245465E-03 0.54607144E+02</pdfrwt>
<totfact> 0.62101464E+05</totfact>
</mgrwt>
</event>
<event>
 4    1  0.4696545E-002  0.4254603E+02  0.7818608E-02  0.1490270E+00
          2   -1    0    0    0  501  0.00000000000E+00  0.00000000000E+00  0.63069867010E+03  0.63069867010E+03  0.25500000000E-02 0.  1.
         -2   -1    0    0  501    0 -0.00000000000E+00 -0.00000000000E+00 -0.71752145556E+00  0.71752598677E+00  0.25500000000E-02 0.  1.
          2    1    1    2    0  502 -0.10802939055E+02 -0.18289658367E+02  0.33208105497E+03  0.33275973640E+03  0.25500000000E-02 0.  1.
         -2    1    1    2  502    0  0.10802939055E+02  0.18289658367E+02  0.29790009368E+03  0.29865645969E+03  0.25500000000E-02 0.  1.
<mgrwt>
<rscale>  0 0.42546034E+02</rscale>
<asrwt>0</asrwt>
<pdfrwt beam="1">  1        2 0.97030320E-01 0.42546034E+02</pdfrwt>
<pdfrwt beam="2">  1       -2 0.11038854E-03 0.42546034E+02</pdfrwt>
<totfact> 0.15926151E+06</totfact>
</mgrwt>
</event>
<event>
 4    1  0.4696545E-002  0.4419715E+02  0.7818608E-02  0.1479417E+00
          2   -1    0    0    0  501  0.00000000000E+00  0.00000000000E+00  0.74694813210E+03  0.74694813210E+03  0.25500000000E-02 0. -1.
         -2   -1    0    0  501    0 -0.00000000000E+00 -0.00000000000E+00 -0.65378725711E+00  0.65379223004E+00  0.25500000000E-02 0. -1.
          2    1    1    2    0  502 -0.21102501673E+02 -0.61805821505E+01  0.33596515517E+03  0.33668397745E+03  0.25500000000E-02 0. -1.
         -2    1    1    2  502    0  0.21102501673E+02  0.61805821505E+01  0.41032918966E+03  0.41091794688E+03  0.25500000000E-02 0. -1.
<mgrwt>
<rscale>  0 0.44197151E+02</rscale>
<asrwt>0</asrwt>
<pdfrwt beam="1">  1        2 0.11491502E+00 0.44197151E+02</pdfrwt>
<pdfrwt beam="2">  1       -2 0.10058311E-03 0.44197151E+02</pdfrwt>
<totfact> 0.15090746E+06</totfact>
</mgrwt>
</event>
<event>
 4    1  0.4696545E-002  0.4385595E+02  0.7818608E-02  0.1481613E+00
         -2   -1    0    0  501    0 -0.00000000000E+00  0.00000000000E+00  0.47163865352E+00  0.47164554699E+00  0.25500000000E-02 0.  1.
          2   -1    0    0    0  501  0.00000000000E+00 -0.00000000000E+00 -0.10194936441E+04  0.10194936441E+04  0.25500000000E-02 0.  1.
          2    1    1    2    0  502 -0.39054318981E+01 -0.21423463088E+02 -0.44967653345E+03  0.45020351166E+03  0.25500000000E-02 0. -1.
         -2    1    1    2  502    0  0.39054318981E+01  0.21423463088E+02 -0.56934547199E+03  0.56976177798E+03  0.25500000000E-02 0. -1.
<mgrwt>
<rscale>  0 0.43855952E+02</rscale>
<asrwt>0</asrwt>
<pdfrwt beam="2">  1        2 0.15684341E+00 0.43855952E+02</pdfrwt>
<pdfrwt beam="1">  1       -2 0.72561140E-04 0.43855952E+02</pdfrwt>
<totfact> 0.15973003E+06</totfact>
</mgrwt>
</event>
<event>
 4    1  0.4696545E-002  0.1743801E+03  0.7818608E-02  0.1173356E+00
          2   -1    0    0    0  501  0.00000000000E+00  0.00000000000E+00  0.17039432598E+03  0.17039432599E+03  0.25500000000E-02 0.  1.
         -2   -1    0    0  501    0 -0.00000000000E+00 -0.00000000000E+00 -0.44614801647E+02  0.44614801720E+02  0.25500000000E-02 0.  1.
          2    1    1    2    0  502 -0.68471447617E+02  0.21467721128E+02  0.12395589011E+03  0.14322801712E+03  0.25500000000E-02 0.  1.
         -2    1    1    2  502    0  0.68471447617E+02 -0.21467721128E+02  0.18236342162E+01  0.71781110590E+02  0.25500000000E-02 0.  1.
<mgrwt>
<rscale>  0 0.17438015E+03</rscale>
<asrwt>0</asrwt>
<pdfrwt beam="1">  1        2 0.26214512E-01 0.17438015E+03</pdfrwt>
<pdfrwt beam="2">  1       -2 0.68638156E-02 0.17438015E+03</pdfrwt>
<totfact> 0.23274954E+04</totfact>
</mgrwt>
</event>
<event>
 4    1  0.4696545E-002  0.1017360E+03  0.7818608E-02  0.1276687E+00
          2   -1    0    0    0  501  0.00000000000E+00  0.00000000000E+00  0.10195137303E+04  0.10195137303E+04  0.25500000000E-02 0. -1.
         -2   -1    0    0  501    0 -0.00000000000E+00 -0.00000000000E+00 -0.25380269760E+01  0.25380282571E+01  0.25500000000E-02 0. -1.
          2    1    1    2    0  502 -0.15691951209E+02  0.45250582467E+02  0.68065537439E+03  0.68233832608E+03  0.25500000000E-02 0.  1.
         -2    1    1    2  502    0  0.15691951209E+02 -0.45250582467E+02  0.33632032897E+03  0.33971343251E+03  0.25500000000E-02 0.  1.
<mgrwt>
<rscale>  0 0.10173601E+03</rscale>
<asrwt>0</asrwt>
<pdfrwt beam="1">  1        2 0.15684836E+00 0.10173601E+03</pdfrwt>
<pdfrwt beam="2">  1       -2 0.39046555E-03 0.10173601E+03</pdfrwt>
<totfact> 0.18719265E+05</totfact>
</mgrwt>
</event>
<event>
 4    1  0.4696545E-002  0.8552219E+02  0.7818608E-02  0.1314073E+00
         -2   -1    0    0  501    0 -0.00000000000E+00  0.00000000000E+00  0.12554036405E+01  0.12554062303E+01  0.25500000000E-02 0. -1.
          2   -1    0    0    0  501  0.00000000000E+00 -0.00000000000E+00 -0.14565109767E+04  0.14565109767E+04  0.25500000000E-02 0. -1.
          2    1    1    2    0  502 -0.35702922716E+02  0.17588330637E+02 -0.99413913509E+03  0.99493550946E+03  0.25500000000E-02 0. -1.
         -2    1    1    2  502    0  0.35702922716E+02 -0.17588330637E+02 -0.46111643800E+03  0.46283087350E+03  0.25500000000E-02 0. -1.
<mgrwt>
<rscale>  0 0.85522186E+02</rscale>
<asrwt>0</asrwt>
<pdfrwt beam="2">  1        2 0.22407726E+00 0.85522186E+02</pdfrwt>
<pdfrwt beam="1">  1       -2 0.19314039E-03 0.85522186E+02</pdfrwt>
<totfact> 0.28213414E+05</totfact>
</mgrwt>
</event>
<event>
 4    1  0.4696545E-002  0.6247571E+02  0.7818608E-02  0.1387726E+00
         -2   -1    0    0  501    0 -0.00000000000E+00  0.00000000000E+00  0.18858368674E+01  0.18858385915E+01  0.25500000000E-02 0. -1.
          2   -1    0    0    0  501  0.00000000000E+00 -0.00000000000E+00 -0.51743777634E+03  0.51743777634E+03  0.25500000000E-02 0. -1.
          2    1    1    2    0  502  0.29924800821E+02  0.50535568149E+01 -0.19625767130E+03  0.19859029607E+03  0.25500000000E-02 0.  1.
         -2    1    1    2  502    0 -0.29924800821E+02 -0.50535568149E+01 -0.31929426816E+03  0.32073331886E+03  0.25500000000E-02 0.  1.
<mgrwt>
<rscale>  0 0.62475713E+02</rscale>
<asrwt>0</asrwt>
<pdfrwt beam="2">  1        2 0.79605699E-01 0.62475713E+02</pdfrwt>
<pdfrwt beam="1">  1       -2 0.29012929E-03 0.62475713E+02</pdfrwt>
<totfact> 0.58066580E+05</totfact>
</mgrwt>
</event>
<event>
 4    1  0.4696545E-002  0.4173028E+02  0.7818608E-02  0.1495851E+00
          2   -1    0    0    0  501  0.00000000000E+00  0.00000000000E+00  0.20347489561E+03  0.20347489562E+03  0.25500000000E-02 0.  1.
         -2   -1    0    0  501    0 -0.00000000000E+00 -0.00000000000E+00 -0.21395955792E+01  0.21395970987E+01  0.25500000000E-02 0.  1.
          2    1    1    2    0  502  0.10531532605E+02 -0.17854277101E+02  0.11239584123E+03  0.11429135367E+03  0.25500000000E-02 0. -1.
         -2    1    1    2  502    0 -0.10531532605E+02  0.17854277101E+02  0.88939458792E+02  0.91323139053E+02  0.25500000000E-02 0. -1.
<mgrwt>
<rscale>  0 0.41730284E+02</rscale>
<asrwt>0</asrwt>
<pdfrwt beam="1">  1        2 0.31303830E-01 0.41730284E+02</pdfrwt>
<pdfrwt beam="2">  1       -2 0.32916867E-03 0.41730284E+02</pdfrwt>
<totfact> 0.11582009E+06</totfact>
</mgrwt>
</event>
<event>
 4    1  0.4696545E-002  0.5565882E+02  0.7818608E-02  0.1417009E+00
         -2   -1    0    0  501    0 -0.00000000000E+00  0.00000000000E+00  0.45521936994E+01  0.45521944136E+01  0.25500000000E-02 0.  1.
          2   -1    0    0    0  501  0.00000000000E+00 -0.00000000000E+00 -0.17013245318E+03  0.17013245320E+03  0.25500000000E-02 0.  1.
          2    1    1    2    0  502 -0.14562723604E+01  0.23601156171E+02 -0.12884587058E+03  0.13099768575E+03  0.25500000000E-02 0. -1.
         -2    1    1    2  502    0  0.14562723604E+01 -0.23601156171E+02 -0.36734388906E+02  0.43686961861E+02  0.25500000000E-02 0. -1.
<mgrwt>
<rscale>  0 0.55658816E+02</rscale>
<asrwt>0</asrwt>
<pdfrwt beam="2">  1        2 0.26174219E-01 0.55658816E+02</pdfrwt>
<pdfrwt beam="1">  1       -2 0.70033768E-03 0.55658816E+02</pdfrwt>
<totfact> 0.53267711E+05</totfact>
</mgrwt>
</event>
<event>
 4    1  0.4696545E-002  0.4475984E+02  0.7818608E-02  0.1475847E+00
         -2   -1    0    0  501    0 -0.00000000000E+00  0.00000000000E+00  0.69377616056E+00  0.69378084685E+00  0.25500000000E-02 0.  1.
          2   -1    0    0    0  501  0.00000000000E+00 -0.00000000000E+00 -0.72193177212E+03  0.72193177212E+03  0.25500000000E-02 0.  1.
          2    1    1    2    0  502 -0.57227022086E+00 -0.22369291818E+02 -0.36683058059E+03  0.36751243186E+03  0.25500000000E-02 0.  1.
         -2    1    1    2  502    0  0.57227022086E+00  0.22369291818E+02 -0.35440741537E+03  0.35511312111E+03  0.25500000000E-02 0.  1.
<mgrwt>
<rscale>  0 0.44759837E+02</rscale>
<asrwt>0</asrwt>
<pdfrwt beam="2">  1        2 0.11106583E+00 0.44759837E+02</pdfrwt>
<pdfrwt beam="1">  1       -2 0.10673573E-03 0.44759837E+02</pdfrwt>
<totfact> 0.14532004E+06</totfact>
</mgrwt>
</event>
<event>
 4    1  0.4696545E-002  0.4175018E+02  0.7818608E-02  0.1495713E+00
         -2   -1    0    0  501    0 -0.00000000000E+00  0.00000000000E+00  0.14329641649E+03  0.14329641651E+03  0.25500000000E-02 0.  1.
          2   -1    0    0    0  501  0.00000000000E+00 -0.00000000000E+00 -0.30410348532E+01  0.30410359224E+01  0.25500000000E-02 0.  1.
          2    1    1    2    0  502 -0.19670103476E+02  0.41259467107E+01  0.89903593085E+02  0.92122703299E+02  0.25500000000E-02 0.  1.
         -2    1    1    2  502    0  0.19670103476E+02 -0.41259467107E+01  0.50351788551E+02  0.54214749135E+02  0.25500000000E-02 0.  1.
<mgrwt>
<rscale>  0 0.41750185E+02</rscale>
<asrwt>0</asrwt>
<pdfrwt beam="2">  1        2 0.46785182E-03 0.41750185E+02</pdfrwt>
<pdfrwt beam="1">  1       -2 0.22045592E-01 0.41750185E+02</pdfrwt>
<totfact> 0.49370184E+05</totfact>
</mgrwt>
</event>
<event>
 4    1  0.4696545E-002  0.4239763E+02  0.7818608E-02  0.1491274E+00
         -2   -1    0    0  501    0 -0.00000000000E+00  0.00000000000E+00  0.10738091460E+01  0.10738121738E+01  0.25500000000E-02 0.  1.
          2   -1    0    0    0  501  0.00000000000E+00 -0.00000000000E+00 -0.41849997579E+03  0.41849997580E+03  0.25500000000E-02 0.  1.
          2    1    1    2    0  502 -0.20026382138E+02  0.35789425767E+01 -0.26769696289E+03  0.26846885994E+03  0.25500000000E-02 0.  1.
         -2    1    1    2  502    0  0.20026382138E+02 -0.35789425767E+01 -0.14972920376E+03  0.15110492804E+03  0.25500000000E-02 0.  1.
<mgrwt>
<rscale>  0 0.42397629E+02</rscale>
<asrwt>0</asrwt>
<pdfrwt beam="2">  1        2 0.64384482E-01 0.42397629E+02</pdfrwt>
<pdfrwt beam="1">  1       -2 0.16520197E-03 0.42397629E+02</pdfrwt>
<totfact> 0.14216025E+06</totfact>
</mgrwt>
</event>
<event>
 4    1  0.4696545E-002  0.1688143E+03  0.7818608E-02  0.1179090E+00
         -2   -1    0    0  501    0 -0.00000000000E+00  0.00000000000E+00  0.11201302150E+04  0.11201302150E+04  0.25500000000E-02 0.  1.
          2   -1    0    0    0  501  0.00000000000E+00 -0.00000000000E+00 -0.63604803606E+01  0.63604808717E+01  0.25500000000E-02 0.  1.
          2    1    1    2    0  502  0.16793223277E+02 -0.43637222330E+02  0.10258161349E+04  0.10268811821E+04  0.25500000000E-02 0.  1.
         -2    1    1    2  502    0 -0.16793223277E+02  0.43637222330E+02  0.87953599722E+02  0.99609513759E+02  0.25500000000E-02 0.  1.
<mgrwt>
<rscale>  0 0.16881429E+03</rscale>
<asrwt>0</asrwt>
<pdfrwt beam="2">  1        2 0.97853615E-03 0.16881429E+03</pdfrwt>
<pdfrwt beam="1">  1       -2 0.17232761E+00 0.16881429E+03</pdfrwt>
<totfact> 0.31591560E+03</totfact>
</mgrwt>
</event>
<event>
 4    1  0.4696545E-002  0.1597107E+03  0.7818608E-02  0.1189024E+00
         -2   -1    0    0  501    0 -0.00000000000E+00  0.00000000000E+00  0.32273843327E+01  0.32273853401E+01  0.25500000000E-02 0.  1.
          2   -1    0    0    0  501  0.00000000000E+00 -0.00000000000E+00 -0.19758642821E+04  0.19758642821E+04  0.25500000000E-02 0.  1.
          2    1    1    2    0  502 -0.72937772648E+02  0.21770988777E+02 -0.12855164800E+04  0.12877680362E+04  0.25500000000E-02 0. -1.
         -2    1    1    2  502    0  0.72937772648E+02 -0.21770988777E+02 -0.68712041777E+03  0.69132363127E+03  0.25500000000E-02 0. -1.
<mgrwt>
<rscale>  0 0.15971067E+03</rscale>
<asrwt>0</asrwt>
<pdfrwt beam="2">  1        2 0.30397815E+00 0.15971067E+03</pdfrwt>
<pdfrwt beam="1">  1       -2 0.49652232E-03 0.15971067E+03</pdfrwt>
<totfact> 0.43528458E+04</totfact>
</mgrwt>
</event>
<event>
 4    1  0.4696545E-002  0.4557986E+02  0.7818608E-02  0.1470754E+00
         -2   -1    0    0  501    0 -0.00000000000E+00  0.00000000000E+00  0.35957888437E+02  0.35957888528E+02  0.25500000000E-02 0.  1.
          2   -1    0    0    0  501  0.00000000000E+00 -0.00000000000E+00 -0.14444143407E+02  0.14444143632E+02  0.25500000000E-02 0.  1.
          2    1    1    2    0  502 -0.21866513514E+02 -0.25472251901E+01  0.42384759891E+01  0.22418685391E+02  0.25500000000E-02 0.  1.
         -2    1    1    2  502    0  0.21866513514E+02  0.25472251901E+01  0.17275269041E+02  0.27983346769E+02  0.25500000000E-02 0.  1.
<mgrwt>
<rscale>  0 0.45579860E+02</rscale>
<asrwt>0</asrwt>
<pdfrwt beam="2">  1        2 0.22221759E-02 0.45579860E+02</pdfrwt>
<pdfrwt beam="1">  1       -2 0.55319829E-02 0.45579860E+02</pdfrwt>
<totfact> 0.53610459E+05</totfact>
</mgrwt>
</event>
<event>
 4    1  0.4696545E-002  0.6967931E+02  0.7818608E-02  0.1361187E+00
         -2   -1    0    0  501    0 -0.00000000000E+00  0.00000000000E+00  0.29675120165E+03  0.29675120167E+03  0.25500000000E-02 0. -1.
          2   -1    0    0    0  501  0.00000000000E+00 -0.00000000000E+00 -0.40903003138E+01  0.40903011087E+01  0.25500000000E-02 0. -1.
          2    1    1    2    0  502  0.11481491440E+02 -0.28851536705E+02  0.78123842334E+02  0.84068844190E+02  0.25500000000E-02 0.  1.
         -2    1    1    2  502    0 -0.11481491440E+02  0.28851536705E+02  0.21453705901E+03  0.21677265858E+03  0.25500000000E-02 0.  1.
<mgrwt>
<rscale>  0 0.69679313E+02</rscale>
<asrwt>0</asrwt>
<pdfrwt beam="2">  1        2 0.62927685E-03 0.69679313E+02</pdfrwt>
<pdfrwt beam="1">  1       -2 0.45654044E-01 0.69679313E+02</pdfrwt>
<totfact> 0.10198555E+05</totfact>
</mgrwt>
</event>
<event>
 4    1  0.4696545E-002  0.1450240E+03  0.7818608E-02  0.1206724E+00
         -2   -1    0    0  501    0 -0.00000000000E+00  0.00000000000E+00  0.91906937770E+02  0.91906937805E+02  0.25500000000E-02 0.  1.
          2   -1    0    0    0  501  0.00000000000E+00 -0.00000000000E+00 -0.57209912791E+02  0.57209912848E+02  0.25500000000E-02 0.  1.
          2    1    1    2    0  502  0.47390088105E+02  0.54488884228E+02  0.24101117221E+02  0.76129644770E+02  0.25500000000E-02 0. -1.
         -2    1    1    2  502    0 -0.47390088105E+02 -0.54488884228E+02  0.10595907757E+02  0.72987205883E+02  0.25500000000E-02 0. -1.
<mgrwt>
<rscale>  0 0.14502397E+03</rscale>
<asrwt>0</asrwt>
<pdfrwt beam="2">  1        2 0.88015251E-02 0.14502397E+03</pdfrwt>
<pdfrwt beam="1">  1       -2 0.14139529E-01 0.14502397E+03</pdfrwt>
<totfact> 0.26338989E+04</totfact>
</mgrwt>
</event>
<event>
 4    1  0.4696545E-002  0.7153501E+02  0.7818608E-02  0.1354950E+00
         -2   -1    0    0  501    0 -0.00000000000E+00  0.00000000000E+00  0.48608099617E+00  0.48608768482E+00  0.25500000000E-02 0.  1.
          2   -1    0    0    0  501  0.00000000000E+00 -0.00000000000E+00 -0.26318772725E+04  0.26318772725E+04  0.25500000000E-02 0.  1.
          2    1    1    2    0  502 -0.31439676289E+02 -0.10578958415E+02 -0.82344179435E+03  0.82410967492E+03  0.25500000000E-02 0. -1.
         -2    1    1    2  502    0  0.31439676289E+02  0.10578958415E+02 -0.18079493972E+04  0.18082536853E+04  0.25500000000E-02 0. -1.
<mgrwt>
<rscale>  0 0.71535008E+02</rscale>
<asrwt>0</asrwt>
<pdfrwt beam="2">  1        2 0.40489278E+00 0.71535008E+02</pdfrwt>
<pdfrwt beam="1">  1       -2 0.74784314E-04 0.71535008E+02</pdfrwt>
<totfact> 0.25701115E+05</totfact>
</mgrwt>
</event>
<event>
 4    1  0.4696545E-002  0.5186945E+02  0.7818608E-02  0.1435511E+00
          2   -1    0    0    0  501  0.00000000000E+00  0.00000000000E+00  0.59333359355E+03  0.59333359356E+03  0.25500000000E-02 0.  1.
         -2   -1    0    0  501    0 -0.00000000000E+00 -0.00000000000E+00 -0.11336102255E+01  0.11336130936E+01  0.25500000000E-02 0.  1.
          2    1    1    2    0  502  0.45726598941E+00 -0.20591905842E+02  0.11547845899E+03  0.11730093851E+03  0.25500000000E-02 0.  1.
         -2    1    1    2  502    0 -0.45726598941E+00  0.20591905842E+02  0.47672152434E+03  0.47716626814E+03  0.25500000000E-02 0.  1.
<mgrwt>
<rscale>  0 0.51869447E+02</rscale>
<asrwt>0</asrwt>
<pdfrwt beam="1">  1        2 0.91281999E-01 0.51869447E+02</pdfrwt>
<pdfrwt beam="2">  1       -2 0.17440197E-03 0.51869447E+02</pdfrwt>
<totfact> 0.96417265E+05</totfact>
</mgrwt>
</event>
<event>
 4    1  0.4696545E-002  0.4836068E+02  0.7818608E-02  0.1454390E+00
          2   -1    0    0    0  501  0.00000000000E+00  0.00000000000E+00  0.82068161680E+03  0.82068161681E+03  0.25500000000E-02 0. -1.
         -2   -1    0    0  501    0 -0.00000000000E+00 -0.00000000000E+00 -0.71244053664E+00  0.71244510017E+00  0.25500000000E-02 0. -1.
          2    1    1    2    0  502 -0.20513688394E+02 -0.12786631394E+02  0.42044596695E+03  0.42114026224E+03  0.25500000000E-02 0. -1.
         -2    1    1    2  502    0  0.20513688394E+02  0.12786631394E+02  0.39952320932E+03  0.40025379967E+03  0.25500000000E-02 0. -1.
<mgrwt>
<rscale>  0 0.48360675E+02</rscale>
<asrwt>0</asrwt>
<pdfrwt beam="1">  1        2 0.12625991E+00 0.48360675E+02</pdfrwt>
<pdfrwt beam="2">  1       -2 0.10960554E-03 0.48360675E+02</pdfrwt>
<totfact> 0.12314591E+06</totfact>
</mgrwt>
</event>
<event>
 4    1  0.4696545E-002  0.1427163E+03  0.7818608E-02  0.1209720E+00
          2   -1    0    0    0  501  0.00000000000E+00  0.00000000000E+00  0.11877044949E+04  0.11877044949E+04  0.25500000000E-02 0.  1.
         -2   -1    0    0  501    0 -0.00000000000E+00 -0.00000000000E+00 -0.42872500395E+01  0.42872507978E+01  0.25500000000E-02 0.  1.
          2    1    1    2    0  502 -0.48883875283E+02  0.34706729822E+02  0.26846795611E+03  0.27508041337E+03  0.25500000000E-02 0. -1.
         -2    1    1    2  502    0  0.48883875283E+02 -0.34706729822E+02  0.91494928879E+03  0.91691133236E+03  0.25500000000E-02 0. -1.
<mgrwt>
<rscale>  0 0.14271631E+03</rscale>
<asrwt>0</asrwt>
<pdfrwt beam="1">  1        2 0.18272383E+00 0.14271631E+03</pdfrwt>
<pdfrwt beam="2">  1       -2 0.65957678E-03 0.14271631E+03</pdfrwt>
<totfact> 0.74591346E+04</totfact>
</mgrwt>
</event>
<event>
 4    1  0.4696545E-002  0.6605832E+02  0.7818608E-02  0.1374034E+00
         -2   -1    0    0  501    0 -0.00000000000E+00  0.00000000000E+00  0.14113550876E+02  0.14113551107E+02  0.25500000000E-02 0.  1.
          2   -1    0    0    0  501  0.00000000000E+00 -0.00000000000E+00 -0.77296317043E+02  0.77296317085E+02  0.25500000000E-02 0.  1.
          2    1    1    2    0  502 -0.10916319076E+02 -0.21563400757E+02 -0.44017147530E+00  0.24173126231E+02  0.25500000000E-02 0. -1.
         -2    1    1    2  502    0  0.10916319076E+02  0.21563400757E+02 -0.62742594691E+02  0.67236741960E+02  0.25500000000E-02 0. -1.
<mgrwt>
<rscale>  0 0.66058323E+02</rscale>
<asrwt>0</asrwt>
<pdfrwt beam="2">  1        2 0.11891741E-01 0.66058323E+02</pdfrwt>
<pdfrwt beam="1">  1       -2 0.21713156E-02 0.66058323E+02</pdfrwt>
<totfact> 0.27270598E+05</totfact>
</mgrwt>
</event>
<event>
 4    1  0.4696545E-002  0.8440565E+02  0.7818608E-02  0.1316994E+00
          2   -1    0    0    0  501  0.00000000000E+00  0.00000000000E+00  0.13606707457E+04  0.13606707457E+04  0.25500000000E-02 0. -1.
         -2   -1    0    0  501    0 -0.00000000000E+00 -0.00000000000E+00 -0.13089697030E+01  0.13089721868E+01  0.25500000000E-02 0. -1.
          2    1    1    2    0  502 -0.85270794022E+01 -0.19421259846E+02  0.12684131613E+04  0.12685904950E+04  0.25500000000E-02 0. -1.
         -2    1    1    2  502    0  0.85270794022E+01  0.19421259846E+02  0.90948614739E+02  0.93389222861E+02  0.25500000000E-02 0. -1.
<mgrwt>
<rscale>  0 0.84405651E+02</rscale>
<asrwt>0</asrwt>
<pdfrwt beam="1">  1        2 0.20933381E+00 0.84405651E+02</pdfrwt>
<pdfrwt beam="2">  1       -2 0.20138030E-03 0.84405651E+02</pdfrwt>
<totfact> 0.29782775E+05</totfact>
</mgrwt>
</event>
<event>
 4    1  0.4696545E-002  0.5966503E+02  0.7818608E-02  0.1399243E+00
          2   -1    0    0    0  501  0.00000000000E+00  0.00000000000E+00  0.12012485291E+04  0.12012485291E+04  0.25500000000E-02 0.  1.
         -2   -1    0    0  501    0 -0.00000000000E+00 -0.00000000000E+00 -0.74087611016E+00  0.74088049853E+00  0.25500000000E-02 0.  1.
          2    1    1    2    0  502 -0.22200334441E+02 -0.19824668420E+02  0.55942901033E+03  0.56022021557E+03  0.25500000000E-02 0.  1.
         -2    1    1    2  502    0  0.22200334441E+02  0.19824668420E+02  0.64107864264E+03  0.64176919401E+03  0.25500000000E-02 0.  1.
<mgrwt>
<rscale>  0 0.59665031E+02</rscale>
<asrwt>0</asrwt>
<pdfrwt beam="1">  1        2 0.18480764E+00 0.59665031E+02</pdfrwt>
<pdfrwt beam="2">  1       -2 0.11398117E-03 0.59665031E+02</pdfrwt>
<totfact> 0.74139831E+05</totfact>
</mgrwt>
</event>
<event>
 4    1  0.4696545E-002  0.4230286E+02  0.7818608E-02  0.1491918E+00
         -2   -1    0    0  501    0 -0.00000000000E+00  0.00000000000E+00  0.25031026835E+01  0.25031039824E+01  0.25500000000E-02 0.  1.
          2   -1    0    0    0  501  0.00000000000E+00 -0.00000000000E+00 -0.17873133381E+03  0.17873133383E+03  0.25500000000E-02 0.  1.
          2    1    1    2    0  502 -0.12821354713E+02  0.16725264142E+02 -0.95851119401E+02  0.98140504860E+02  0.25500000000E-02 0.  1.
         -2    1    1    2  502    0  0.12821354713E+02 -0.16725264142E+02 -0.80377111724E+02  0.83093932948E+02  0.25500000000E-02 0.  1.
<mgrwt>
<rscale>  0 0.42302860E+02</rscale>
<asrwt>0</asrwt>
<pdfrwt beam="2">  1        2 0.27497118E-01 0.42302860E+02</pdfrwt>
<pdfrwt beam="1">  1       -2 0.38509296E-03 0.42302860E+02</pdfrwt>
<totfact> 0.10743610E+06</totfact>
</mgrwt>
</event>
<event>
 4    1  0.4696545E-002  0.4144487E+02  0.7818608E-02  0.1497840E+00
         -2   -1    0    0  501    0 -0.00000000000E+00  0.00000000000E+00  0.28388282116E+00  0.28389427372E+00  0.25500000000E-02 0.  1.
          2   -1    0    0    0  501  0.00000000000E+00 -0.00000000000E+00 -0.15126333740E+04  0.15126333740E+04  0.25500000000E-02 0.  1.
          2    1    1    2    0  502 -0.17573377183E+02 -0.10248710633E+02 -0.61218085054E+03  0.61251877803E+03  0.25500000000E-02 0. -1.
         -2    1    1    2  502    0  0.17573377183E+02  0.10248710633E+02 -0.90016864062E+03  0.90039849024E+03  0.25500000000E-02 0. -1.
<mgrwt>
<rscale>  0 0.41444869E+02</rscale>
<asrwt>0</asrwt>
<pdfrwt beam="2">  1        2 0.23270637E+00 0.41444869E+02</pdfrwt>
<pdfrwt beam="1">  1       -2 0.43676372E-04 0.41444869E+02</pdfrwt>
<totfact> 0.17316077E+06</totfact>
</mgrwt>
</event>
<event>
 4    1  0.4696545E-002  0.6653531E+02  0.7818608E-02  0.1372288E+00
          2   -1    0    0    0  501  0.00000000000E+00  0.00000000000E+00  0.38283974597E+02  0.38283974682E+02  0.25500000000E-02 0. -1.
         -2   -1    0    0  501    0 -0.00000000000E+00 -0.00000000000E+00 -0.28908619991E+02  0.28908620104E+02  0.25500000000E-02 0. -1.
          2    1    1    2    0  502 -0.11160300717E+02 -0.26675684222E+02  0.21299873413E+02  0.35914190158E+02  0.25500000000E-02 0. -1.
         -2    1    1    2  502    0  0.11160300717E+02  0.26675684222E+02 -0.11924518807E+02  0.31278404628E+02  0.25500000000E-02 0. -1.
<mgrwt>
<rscale>  0 0.66535310E+02</rscale>
<asrwt>0</asrwt>
<pdfrwt beam="1">  1        2 0.58898423E-02 0.66535310E+02</pdfrwt>
<pdfrwt beam="2">  1       -2 0.44474800E-02 0.66535310E+02</pdfrwt>
<totfact> 0.22871488E+05</totfact>
</mgrwt>
</event>
<event>
 4    1  0.4696545E-002  0.5223382E+02  0.7818608E-02  0.1433652E+00
         -2   -1    0    0  501    0 -0.00000000000E+00  0.00000000000E+00  0.91007706147E+00  0.91008063396E+00  0.25500000000E-02 0. -1.
          2   -1    0    0    0  501  0.00000000000E+00 -0.00000000000E+00 -0.74948774293E+03  0.74948774293E+03  0.25500000000E-02 0. -1.
          2    1    1    2    0  502 -0.23671591645E+02 -0.44862154070E+01 -0.22946672857E+03  0.23072808652E+03  0.25500000000E-02 0. -1.
         -2    1    1    2  502    0  0.23671591645E+02  0.44862154070E+01 -0.51911093729E+03  0.51966973705E+03  0.25500000000E-02 0. -1.
<mgrwt>
<rscale>  0 0.52233818E+02</rscale>
<asrwt>0</asrwt>
<pdfrwt beam="2">  1        2 0.11530531E+00 0.52233818E+02</pdfrwt>
<pdfrwt beam="1">  1       -2 0.14001273E-03 0.52233818E+02</pdfrwt>
<totfact> 0.10018660E+06</totfact>
</mgrwt>
</event>
<event>
 4    1  0.4696545E-002  0.1136910E+03  0.7818608E-02  0.1253883E+00
          2   -1    0    0    0  501  0.00000000000E+00  0.00000000000E+00  0.10223007931E+03  0.10223007935E+03  0.25500000000E-02 0. -1.
         -2   -1    0    0  501    0 -0.00000000000E+00 -0.00000000000E+00 -0.31609205315E+02  0.31609205418E+02  0.25500000000E-02 0. -1.
          2    1    1    2    0  502  0.36842729403E+02 -0.43067929544E+02  0.40465839415E+02  0.69639912630E+02  0.25500000000E-02 0. -1.
         -2    1    1    2  502    0 -0.36842729403E+02  0.43067929544E+02  0.30155034584E+02  0.64199372134E+02  0.25500000000E-02 0. -1.
<mgrwt>
<rscale>  0 0.11369101E+03</rscale>
<asrwt>0</asrwt>
<pdfrwt beam="1">  1        2 0.15727704E-01 0.11369101E+03</pdfrwt>
<pdfrwt beam="2">  1       -2 0.48629548E-02 0.11369101E+03</pdfrwt>
<totfact> 0.66592757E+04</totfact>
</mgrwt>
</event>
<event>
 4    1  0.4696545E-002  0.4581366E+02  0.7818608E-02  0.1469325E+00
         -2   -1    0    0  501    0 -0.00000000000E+00  0.00000000000E+00  0.14631513216E+03  0.14631513218E+03  0.25500000000E-02 0. -1.
          2   -1    0    0    0  501  0.00000000000E+00 -0.00000000000E+00 -0.35862508452E+01  0.35862517518E+01  0.25500000000E-02 0. -1.
          2    1    1    2    0  502 -0.19437343977E+02 -0.52160942912E+01  0.35565800026E+02  0.40864949756E+02  0.25500000000E-02 0. -1.
         -2    1    1    2  502    0  0.19437343977E+02  0.52160942912E+01  0.10716308129E+03  0.10903643417E+03  0.25500000000E-02 0. -1.
<mgrwt>
<rscale>  0 0.45813659E+02</rscale>
<asrwt>0</asrwt>
<pdfrwt beam="2">  1        2 0.55173103E-03 0.45813659E+02</pdfrwt>
<pdfrwt beam="1">  1       -2 0.22510018E-01 0.45813659E+02</pdfrwt>
<totfact> 0.39160682E+05</totfact>
</mgrwt>
</event>
<event>
 4    1  0.4696545E-002  0.5079290E+02  0.7818608E-02  0.1441111E+00
         -2   -1    0    0  501    0 -0.00000000000E+00  0.00000000000E+00  0.21805630279E+00  0.21807121243E+00  0.25500000000E-02 0.  1.
          2   -1    0    0    0  501  0.00000000000E+00 -0.00000000000E+00 -0.29577571234E+04  0.29577571234E+04  0.25500000000E-02 0.  1.
          2    1    1    2    0  502 -0.13981663827E+02 -0.21107403851E+02 -0.13627320807E+04  0.13629672532E+04  0.25500000000E-02 0.  1.
         -2    1    1    2  502    0  0.13981663827E+02  0.21107403851E+02 -0.15948069864E+04  0.15950079414E+04  0.25500000000E-02 0.  1.
<mgrwt>
<rscale>  0 0.50792899E+02</rscale>
<asrwt>0</asrwt>
<pdfrwt beam="2">  1        2 0.45500743E+00 0.50792899E+02</pdfrwt>
<pdfrwt beam="1">  1       -2 0.33550639E-04 0.50792899E+02</pdfrwt>
<totfact> 0.48405403E+05</totfact>
</mgrwt>
</event>
<event>
 4    1  0.4696545E-002  0.4260549E+02  0.7818608E-02  0.1489869E+00
         -2   -1    0    0  501    0 -0.00000000000E+00  0.00000000000E+00  0.19175018324E+01  0.19175035280E+01  0.25500000000E-02 0. -1.
          2   -1    0    0    0  501  0.00000000000E+00 -0.00000000000E+00 -0.23666560183E+03  0.23666560184E+03  0.25500000000E-02 0. -1.
          2    1    1    2    0  502  0.10155753381E+02  0.17762897062E+02 -0.15057257422E+03  0.15195644097E+03  0.25500000000E-02 0. -1.
         -2    1    1    2  502    0 -0.10155753381E+02 -0.17762897062E+02 -0.84175525775E+02  0.86626664398E+02  0.25500000000E-02 0. -1.
<mgrwt>
<rscale>  0 0.42605489E+02</rscale>
<asrwt>0</asrwt>
<pdfrwt beam="2">  1        2 0.36410070E-01 0.42605489E+02</pdfrwt>
<pdfrwt beam="1">  1       -2 0.29500060E-03 0.42605489E+02</pdfrwt>
<totfact> 0.11574710E+06</totfact>
</mgrwt>
</event>
<event>
 4    1  0.4696545E-002  0.4375477E+02  0.7818608E-02  0.1482268E+00
         -2   -1    0    0  501    0 -0.00000000000E+00  0.00000000000E+00  0.60546724181E+01  0.60546729551E+01  0.25500000000E-02 0.  1.
          2   -1    0    0    0  501  0.00000000000E+00 -0.00000000000E+00 -0.79049679984E+02  0.79049680025E+02  0.25500000000E-02 0.  1.
          2    1    1    2    0  502  0.21260896232E+02 -0.51546699779E+01 -0.36198677377E+02  0.42295869556E+02  0.25500000000E-02 0. -1.
         -2    1    1    2  502    0 -0.21260896232E+02  0.51546699779E+01 -0.36796330189E+02  0.42808483424E+02  0.25500000000E-02 0. -1.
<mgrwt>
<rscale>  0 0.43754769E+02</rscale>
<asrwt>0</asrwt>
<pdfrwt beam="2">  1        2 0.12161489E-01 0.43754769E+02</pdfrwt>
<pdfrwt beam="1">  1       -2 0.93148816E-03 0.43754769E+02</pdfrwt>
<totfact> 0.79095968E+05</totfact>
</mgrwt>
</event>
<event>
 4    1  0.4696545E-002  0.5284576E+02  0.7818608E-02  0.1430570E+00
         -2   -1    0    0  501    0 -0.00000000000E+00  0.00000000000E+00  0.11053863023E+01  0.11053892435E+01  0.25500000000E-02 0.  1.
          2   -1    0    0    0  501  0.00000000000E+00 -0.00000000000E+00 -0.63160502528E+03  0.63160502529E+03  0.25500000000E-02 0.  1.
          2    1    1    2    0  502 -0.56865890928E+01  0.19629100050E+02 -0.11471757271E+03  0.11652364721E+03  0.25500000000E-02 0.  1.
         -2    1    1    2  502    0  0.56865890928E+01 -0.19629100050E+02 -0.51578206628E+03  0.51618676733E+03  0.25500000000E-02 0.  1.
<mgrwt>
<rscale>  0 0.52845756E+02</rscale>
<asrwt>0</asrwt>
<pdfrwt beam="2">  1        2 0.97169716E-01 0.52845756E+02</pdfrwt>
<pdfrwt beam="1">  1       -2 0.17006016E-03 0.52845756E+02</pdfrwt>
<totfact> 0.93594271E+05</totfact>
</mgrwt>
</event>
<event>
 4    1  0.4696545E-002  0.5138512E+02  0.7818608E-02  0.1438011E+00
         -2   -1    0    0  501    0 -0.00000000000E+00  0.00000000000E+00  0.29518852883E+02  0.29518852994E+02  0.25500000000E-02 0.  1.
          2   -1    0    0    0  501  0.00000000000E+00 -0.00000000000E+00 -0.22362240926E+02  0.22362241072E+02  0.25500000000E-02 0.  1.
          2    1    1    2    0  502 -0.22902199306E+02 -0.97296638391E+01  0.10037760282E+02  0.26831580823E+02  0.25500000000E-02 0.  1.
         -2    1    1    2  502    0  0.22902199306E+02  0.97296638391E+01 -0.28811483252E+01  0.25049513242E+02  0.25500000000E-02 0.  1.
<mgrwt>
<rscale>  0 0.51385123E+02</rscale>
<asrwt>0</asrwt>
<pdfrwt beam="2">  1        2 0.34403448E-02 0.51385123E+02</pdfrwt>
<pdfrwt beam="1">  1       -2 0.45413620E-02 0.51385123E+02</pdfrwt>
<totfact> 0.41673543E+05</totfact>
</mgrwt>
</event>
<event>
 4    1  0.4696545E-002  0.6297530E+02  0.7818608E-02  0.1385754E+00
         -2   -1    0    0  501    0 -0.00000000000E+00  0.00000000000E+00  0.23253228967E+02  0.23253229107E+02  0.25500000000E-02 0. -1.
          2   -1    0    0    0  501  0.00000000000E+00 -0.00000000000E+00 -0.42638035363E+02  0.42638035440E+02  0.25500000000E-02 0. -1.
          2    1    1    2    0  502 -0.26620573871E+01 -0.28055383720E+02 -0.24388436672E+02  0.37269115297E+02  0.25500000000E-02 0. -1.
         -2    1    1    2  502    0  0.26620573871E+01  0.28055383720E+02  0.50036302760E+01  0.28622149249E+02  0.25500000000E-02 0. -1.
<mgrwt>
<rscale>  0 0.62975297E+02</rscale>
<asrwt>0</asrwt>
<pdfrwt beam="2">  1        2 0.65596977E-02 0.62975297E+02</pdfrwt>
<pdfrwt beam="1">  1       -2 0.35774199E-02 0.62975297E+02</pdfrwt>
<totfact> 0.27126595E+05</totfact>
</mgrwt>
</event>
<event>
 4    1  0.4696545E-002  0.6366628E+02  0.7818608E-02  0.1383060E+00
         -2   -1    0    0  501    0 -0.00000000000E+00  0.00000000000E+00  0.11999735557E+01  0.11999762652E+01  0.25500000000E-02 0. -1.
          2   -1    0    0    0  501  0.00000000000E+00 -0.00000000000E+00 -0.84447497727E+03  0.84447497728E+03  0.25500000000E-02 0. -1.
          2    1    1    2    0  502 -0.47932415996E+00 -0.23749882054E+02 -0.14015771494E+03  0.14215650429E+03  0.25500000000E-02 0. -1.
         -2    1    1    2  502    0  0.47932415996E+00  0.23749882054E+02 -0.70311728878E+03  0.70351844925E+03  0.25500000000E-02 0. -1.
<mgrwt>
<rscale>  0 0.63666280E+02</rscale>
<asrwt>0</asrwt>
<pdfrwt beam="2">  1        2 0.12991875E+00 0.63666280E+02</pdfrwt>
<pdfrwt beam="1">  1       -2 0.18461220E-03 0.63666280E+02</pdfrwt>
<totfact> 0.62242957E+05</totfact>
</mgrwt>
</event>
<event>
 4    1  0.4696545E-002  0.4800084E+02  0.7818608E-02  0.1456433E+00
         -2   -1    0    0  501    0 -0.00000000000E+00  0.00000000000E+00  0.49494615332E+02  0.49494615398E+02  0.25500000000E-02 0. -1.
          2   -1    0    0    0  501  0.00000000000E+00 -0.00000000000E+00 -0.11638037708E+02  0.11638037987E+02  0.25500000000E-02 0. -1.
          2    1    1    2    0  502  0.22302245646E+02 -0.36320573772E+01  0.29230728218E+02  0.36946142969E+02  0.25500000000E-02 0.  1.
         -2    1    1    2  502    0 -0.22302245646E+02  0.36320573772E+01  0.86258494065E+01  0.24186510416E+02  0.25500000000E-02 0.  1.
<mgrwt>
<rscale>  0 0.48000842E+02</rscale>
<asrwt>0</asrwt>
<pdfrwt beam="2">  1        2 0.17904674E-02 0.48000842E+02</pdfrwt>
<pdfrwt beam="1">  1       -2 0.76145561E-02 0.48000842E+02</pdfrwt>
<totfact> 0.45035971E+05</totfact>
</mgrwt>
</event>
<event>
 4    1  0.4696545E-002  0.4103502E+02  0.7818608E-02  0.1500730E+00
         -2   -1    0    0  501    0 -0.00000000000E+00  0.00000000000E+00  0.25670832348E+00  0.25672098832E+00  0.25500000000E-02 0.  1.
          2   -1    0    0    0  501  0.00000000000E+00 -0.00000000000E+00 -0.16398291242E+04  0.16398291242E+04  0.25500000000E-02 0.  1.
          2    1    1    2    0  502  0.15064200595E+02 -0.13712721490E+02 -0.72189085087E+03  0.72217821169E+03  0.25500000000E-02 0.  1.
         -2    1    1    2  502    0 -0.15064200595E+02  0.13712721490E+02 -0.91768156505E+03  0.91790763354E+03  0.25500000000E-02 0.  1.
<mgrwt>
<rscale>  0 0.41035018E+02</rscale>
<asrwt>0</asrwt>
<pdfrwt beam="2">  1        2 0.25227302E+00 0.41035018E+02</pdfrwt>
<pdfrwt beam="1">  1       -2 0.39495876E-04 0.41035018E+02</pdfrwt>
<totfact> 0.17143224E+06</totfact>
</mgrwt>
</event>
<event>
 4    1  0.4696545E-002  0.1181802E+03  0.7818608E-02  0.1246130E+00
         -2   -1    0    0  501    0 -0.00000000000E+00  0.00000000000E+00  0.90142006758E+02  0.90142006794E+02  0.25500000000E-02 0.  1.
          2   -1    0    0    0  501  0.00000000000E+00 -0.00000000000E+00 -0.38734849382E+02  0.38734849466E+02  0.25500000000E-02 0.  1.
          2    1    1    2    0  502 -0.90170258765E+01  0.58390771248E+02  0.24699280972E+02  0.64037827958E+02  0.25500000000E-02 0. -1.
         -2    1    1    2  502    0  0.90170258765E+01 -0.58390771248E+02  0.26707876405E+02  0.64839028302E+02  0.25500000000E-02 0. -1.
<mgrwt>
<rscale>  0 0.11818015E+03</rscale>
<asrwt>0</asrwt>
<pdfrwt beam="2">  1        2 0.59592077E-02 0.11818015E+03</pdfrwt>
<pdfrwt beam="1">  1       -2 0.13868001E-01 0.11818015E+03</pdfrwt>
<totfact> 0.43462016E+04</totfact>
</mgrwt>
</event>
<event>
 4    1  0.4696545E-002  0.4272798E+02  0.7818608E-02  0.1489045E+00
          2   -1    0    0    0  501  0.00000000000E+00  0.00000000000E+00  0.17196809165E+04  0.17196809166E+04  0.25500000000E-02 0.  1.
         -2   -1    0    0  501    0 -0.00000000000E+00 -0.00000000000E+00 -0.26540361102E+00  0.26541586094E+00  0.25500000000E-02 0.  1.
          2    1    1    2    0  502  0.10266808839E+02  0.18660433860E+02  0.92707538781E+03  0.92732000618E+03  0.25500000000E-02 0.  1.
         -2    1    1    2  502    0 -0.10266808839E+02 -0.18660433860E+02  0.79234012512E+03  0.79262632624E+03  0.25500000000E-02 0.  1.
<mgrwt>
<rscale>  0 0.42727980E+02</rscale>
<asrwt>0</asrwt>
<pdfrwt beam="1">  1        2 0.26456713E+00 0.42727980E+02</pdfrwt>
<pdfrwt beam="2">  1       -2 0.40832138E-04 0.42727980E+02</pdfrwt>
<totfact> 0.15145433E+06</totfact>
</mgrwt>
</event>
<event>
 4    1  0.4696545E-002  0.4330745E+02  0.7818608E-02  0.1485193E+00
          2   -1    0    0    0  501  0.00000000000E+00  0.00000000000E+00  0.35850355684E+00  0.35851262568E+00  0.25500000000E-02 0. -1.
         -2   -1    0    0  501    0 -0.00000000000E+00 -0.00000000000E+00 -0.13078753509E+04  0.13078753509E+04  0.25500000000E-02 0. -1.
          2    1    1    2    0  502  0.19830534936E+02  0.32238036864E+01 -0.89775435855E+03  0.89797913747E+03  0.25500000000E-02 0. -1.
         -2    1    1    2  502    0 -0.19830534936E+02 -0.32238036864E+01 -0.40976248876E+03  0.41025472602E+03  0.25500000000E-02 0. -1.
<mgrwt>
<rscale>  0 0.43307454E+02</rscale>
<asrwt>0</asrwt>
<pdfrwt beam="1">  1        2 0.55156138E-04 0.43307454E+02</pdfrwt>
<pdfrwt beam="2">  1       -2 0.20120777E+00 0.43307454E+02</pdfrwt>
<totfact> 0.85748937E+04</totfact>
</mgrwt>
</event>
<event>
 4    1  0.4696545E-002  0.4907245E+02  0.7818608E-02  0.1450410E+00
          2   -1    0    0    0  501  0.00000000000E+00  0.00000000000E+00  0.65152117226E+03  0.65152117226E+03  0.25500000000E-02 0.  1.
         -2   -1    0    0  501    0 -0.00000000000E+00 -0.00000000000E+00 -0.92403019913E+00  0.92403371768E+00  0.25500000000E-02 0.  1.
          2    1    1    2    0  502 -0.24136336358E+02 -0.13427644504E+01  0.26942461656E+03  0.27050691260E+03  0.25500000000E-02 0.  1.
         -2    1    1    2  502    0  0.24136336358E+02  0.13427644504E+01  0.38117252550E+03  0.38193829338E+03  0.25500000000E-02 0.  1.
<mgrwt>
<rscale>  0 0.49072452E+02</rscale>
<asrwt>0</asrwt>
<pdfrwt beam="1">  1        2 0.10023431E+00 0.49072452E+02</pdfrwt>
<pdfrwt beam="2">  1       -2 0.14215836E-03 0.49072452E+02</pdfrwt>
<totfact> 0.11331192E+06</totfact>
</mgrwt>
</event>
<event>
 4    1  0.4696545E-002  0.4447645E+02  0.7818608E-02  0.1477637E+00
         -2   -1    0    0  501    0 -0.00000000000E+00  0.00000000000E+00  0.43997911649E+00  0.43998650598E+00  0.25500000000E-02 0. -1.
          2   -1    0    0    0  501  0.00000000000E+00 -0.00000000000E+00 -0.11239951310E+04  0.11239951310E+04  0.25500000000E-02 0. -1.
          2    1    1    2    0  502  0.16049028330E+02  0.13399766807E+02 -0.75334040607E+03  0.75363047476E+03  0.25500000000E-02 0.  1.
         -2    1    1    2  502    0 -0.16049028330E+02 -0.13399766807E+02 -0.37021474581E+03  0.37080464274E+03  0.25500000000E-02 0.  1.
<mgrwt>
<rscale>  0 0.44476445E+02</rscale>
<asrwt>0</asrwt>
<pdfrwt beam="2">  1        2 0.17292003E+00 0.44476445E+02</pdfrwt>
<pdfrwt beam="1">  1       -2 0.67690563E-04 0.44476445E+02</pdfrwt>
<totfact> 0.15429028E+06</totfact>
</mgrwt>
</event>
<event>
 4    1  0.4696545E-002  0.5498522E+02  0.7818608E-02  0.1420169E+00
         -2   -1    0    0  501    0 -0.00000000000E+00  0.00000000000E+00  0.30159965891E+01  0.30159976671E+01  0.25500000000E-02 0.  1.
          2   -1    0    0    0  501  0.00000000000E+00 -0.00000000000E+00 -0.25061153103E+03  0.25061153104E+03  0.25500000000E-02 0.  1.
          2    1    1    2    0  502  0.14647607039E+02  0.22022344530E+02 -0.89185190551E+02  0.93024374605E+02  0.25500000000E-02 0. -1.
         -2    1    1    2  502    0 -0.14647607039E+02 -0.22022344530E+02 -0.15841034389E+03  0.16060315410E+03  0.25500000000E-02 0. -1.
<mgrwt>
<rscale>  0 0.54985222E+02</rscale>
<asrwt>0</asrwt>
<pdfrwt beam="2">  1        2 0.38555604E-01 0.54985222E+02</pdfrwt>
<pdfrwt beam="1">  1       -2 0.46399976E-03 0.54985222E+02</pdfrwt>
<totfact> 0.62596121E+05</totfact>
</mgrwt>
</event>
<event>
 4    1  0.4696545E-002  0.4750461E+02  0.7818608E-02  0.1459285E+00
          2   -1    0    0    0  501  0.00000000000E+00  0.00000000000E+00  0.82348990795E+02  0.82348990834E+02  0.25500000000E-02 0. -1.
         -2   -1    0    0  501    0 -0.00000000000E+00 -0.00000000000E+00 -0.68509877765E+01  0.68509882511E+01  0.25500000000E-02 0. -1.
          2    1    1    2    0  502 -0.67112130097E+01 -0.22772104570E+02  0.36340317963E+02  0.43407693360E+02  0.25500000000E-02 0.  1.
         -2    1    1    2  502    0  0.67112130097E+01  0.22772104570E+02  0.39157685055E+02  0.45792285726E+02  0.25500000000E-02 0.  1.
<mgrwt>
<rscale>  0 0.47504608E+02</rscale>
<asrwt>0</asrwt>
<pdfrwt beam="1">  1        2 0.12669075E-01 0.47504608E+02</pdfrwt>
<pdfrwt beam="2">  1       -2 0.10539982E-02 0.47504608E+02</pdfrwt>
<totfact> 0.64943232E+05</totfact>
</mgrwt>
</event>
<event>
 4    1  0.4696545E-002  0.4819655E+02  0.7818608E-02  0.1455319E+00
         -2   -1    0    0  501    0 -0.00000000000E+00  0.00000000000E+00  0.61110308469E+00  0.61110840496E+00  0.25500000000E-02 0. -1.
          2   -1    0    0    0  501  0.00000000000E+00 -0.00000000000E+00 -0.95028869543E+03  0.95028869543E+03  0.25500000000E-02 0. -1.
          2    1    1    2    0  502 -0.20078674136E+02  0.12751526576E+02 -0.39849689864E+03  0.39920612823E+03  0.25500000000E-02 0. -1.
         -2    1    1    2  502    0  0.20078674136E+02 -0.12751526576E+02 -0.55118069371E+03  0.55169367561E+03  0.25500000000E-02 0. -1.
<mgrwt>
<rscale>  0 0.48196551E+02</rscale>
<asrwt>0</asrwt>
<pdfrwt beam="2">  1        2 0.14619708E+00 0.48196551E+02</pdfrwt>
<pdfrwt beam="1">  1       -2 0.94017029E-04 0.48196551E+02</pdfrwt>
<totfact> 0.12635353E+06</totfact>
</mgrwt>
</event>
<event>
 4    1  0.4696545E-002  0.1123742E+03  0.7818608E-02  0.1256235E+00
         -2   -1    0    0  501    0 -0.00000000000E+00  0.00000000000E+00  0.75278847360E+01  0.75278851679E+01  0.25500000000E-02 0.  1.
          2   -1    0    0    0  501  0.00000000000E+00 -0.00000000000E+00 -0.41937296427E+03  0.41937296428E+03  0.25500000000E-02 0.  1.
          2    1    1    2    0  502 -0.94885449065E+01 -0.52701081944E+02 -0.27056617665E+03  0.27581423544E+03  0.25500000000E-02 0. -1.
         -2    1    1    2  502    0  0.94885449065E+01  0.52701081944E+02 -0.14127890289E+03  0.15108661400E+03  0.25500000000E-02 0. -1.
<mgrwt>
<rscale>  0 0.11237422E+03</rscale>
<asrwt>0</asrwt>
<pdfrwt beam="2">  1        2 0.64518899E-01 0.11237422E+03</pdfrwt>
<pdfrwt beam="1">  1       -2 0.11581365E-02 0.11237422E+03</pdfrwt>
<totfact> 0.11585694E+05</totfact>
</mgrwt>
</event>
<event>
 4    1  0.4696545E-002  0.6607997E+02  0.7818608E-02  0.1373955E+00
          2   -1    0    0    0  501  0.00000000000E+00  0.00000000000E+00  0.27083033483E+01  0.27083045488E+01  0.25500000000E-02 0.  1.
         -2   -1    0    0  501    0 -0.00000000000E+00 -0.00000000000E+00 -0.40307162266E+03  0.40307162266E+03  0.25500000000E-02 0.  1.
          2    1    1    2    0  502 -0.22812142894E+02  0.13893103454E+02 -0.80755972882E+02  0.85058446668E+02  0.25500000000E-02 0. -1.
         -2    1    1    2  502    0  0.22812142894E+02 -0.13893103454E+02 -0.31960734643E+03  0.32072148054E+03  0.25500000000E-02 0. -1.
<mgrwt>
<rscale>  0 0.66079966E+02</rscale>
<asrwt>0</asrwt>
<pdfrwt beam="1">  1        2 0.41666247E-03 0.66079966E+02</pdfrwt>
<pdfrwt beam="2">  1       -2 0.62010971E-01 0.66079966E+02</pdfrwt>
<totfact> 0.96729137E+04</totfact>
</mgrwt>
</event>
<event>
 4    1  0.4696545E-002  0.4847542E+02  0.7818608E-02  0.1453742E+00
          2   -1    0    0    0  501  0.00000000000E+00  0.00000000000E+00  0.86688738076E+02  0.86688738114E+02  0.25500000000E-02 0. -1.
         -2   -1    0    0  501    0 -0.00000000000E+00 -0.00000000000E+00 -0.67767358479E+01  0.67767363276E+01  0.25500000000E-02 0. -1.
          2    1    1    2    0  502 -0.20913825577E+02 -0.11497306281E+02  0.31800674259E+02  0.39760018131E+02  0.25500000000E-02 0.  1.
         -2    1    1    2  502    0  0.20913825577E+02  0.11497306281E+02  0.48111327970E+02  0.53705456310E+02  0.25500000000E-02 0.  1.
<mgrwt>
<rscale>  0 0.48475425E+02</rscale>
<asrwt>0</asrwt>
<pdfrwt beam="1">  1        2 0.13336729E-01 0.48475425E+02</pdfrwt>
<pdfrwt beam="2">  1       -2 0.10425748E-02 0.48475425E+02</pdfrwt>
<totfact> 0.62469514E+05</totfact>
</mgrwt>
</event>
<event>
 4    1  0.4696545E-002  0.8489452E+02  0.7818608E-02  0.1315709E+00
         -2   -1    0    0  501    0 -0.00000000000E+00  0.00000000000E+00  0.18351982487E+01  0.18352000203E+01  0.25500000000E-02 0.  1.
          2   -1    0    0    0  501  0.00000000000E+00 -0.00000000000E+00 -0.98178449655E+03  0.98178449655E+03  0.25500000000E-02 0.  1.
          2    1    1    2    0  502  0.27805144649E+02  0.31828132803E+02 -0.44419168495E+03  0.44619772421E+03  0.25500000000E-02 0. -1.
         -2    1    1    2  502    0 -0.27805144649E+02 -0.31828132803E+02 -0.53575761335E+03  0.53742197236E+03  0.25500000000E-02 0. -1.
<mgrwt>
<rscale>  0 0.84894524E+02</rscale>
<asrwt>0</asrwt>
<pdfrwt beam="2">  1        2 0.15104335E+00 0.84894524E+02</pdfrwt>
<pdfrwt beam="1">  1       -2 0.28233911E-03 0.84894524E+02</pdfrwt>
<totfact> 0.30123904E+05</totfact>
</mgrwt>
</event>
<event>
 4    1  0.4696545E-002  0.7347750E+02  0.7818608E-02  0.1348652E+00
         -2   -1    0    0  501    0 -0.00000000000E+00  0.00000000000E+00  0.12921123928E+01  0.12921149090E+01  0.25500000000E-02 0. -1.
          2   -1    0    0    0  501  0.00000000000E+00 -0.00000000000E+00 -0.10445953430E+04  0.10445953430E+04  0.25500000000E-02 0. -1.
          2    1    1    2    0  502  0.23002980585E+02 -0.81698880286E+01 -0.13083454767E+03  0.13309231028E+03  0.25500000000E-02 0.  1.
         -2    1    1    2  502    0 -0.23002980585E+02  0.81698880286E+01 -0.91246868296E+03  0.91279514765E+03  0.25500000000E-02 0.  1.
<mgrwt>
<rscale>  0 0.73477504E+02</rscale>
<asrwt>0</asrwt>
<pdfrwt beam="2">  1        2 0.16070630E+00 0.73477504E+02</pdfrwt>
<pdfrwt beam="1">  1       -2 0.19878755E-03 0.73477504E+02</pdfrwt>
<totfact> 0.43910904E+05</totfact>
</mgrwt>
</event>
<event>
 4    1  0.4696545E-002  0.5810916E+02  0.7818608E-02  0.1405942E+00
          2   -1    0    0    0  501  0.00000000000E+00  0.00000000000E+00  0.60397929924E+03  0.60397929925E+03  0.25500000000E-02 0.  1.
         -2   -1    0    0  501    0 -0.00000000000E+00 -0.00000000000E+00 -0.13976770964E+01  0.13976794226E+01  0.25500000000E-02 0.  1.
          2    1    1    2    0  502  0.28428192604E+02  0.57958643683E+01  0.31747905470E+03  0.31880198299E+03  0.25500000000E-02 0. -1.
         -2    1    1    2  502    0 -0.28428192604E+02 -0.57958643683E+01  0.28510256745E+03  0.28657499568E+03  0.25500000000E-02 0. -1.
<mgrwt>
<rscale>  0 0.58109164E+02</rscale>
<asrwt>0</asrwt>
<pdfrwt beam="1">  1        2 0.92919921E-01 0.58109164E+02</pdfrwt>
<pdfrwt beam="2">  1       -2 0.21502736E-03 0.58109164E+02</pdfrwt>
<totfact> 0.72945497E+05</totfact>
</mgrwt>
</event>
<event>
 4    1  0.4696545E-002  0.6783364E+02  0.7818608E-02  0.1367619E+00
          2   -1    0    0    0  501  0.00000000000E+00  0.00000000000E+00  0.23954751610E+03  0.23954751611E+03  0.25500000000E-02 0. -1.
         -2   -1    0    0  501    0 -0.00000000000E+00 -0.00000000000E+00 -0.48021818271E+01  0.48021825042E+01  0.25500000000E-02 0. -1.
          2    1    1    2    0  502  0.19692400517E+02 -0.64894080794E+01  0.21405962706E+03  0.21506144936E+03  0.25500000000E-02 0.  1.
         -2    1    1    2  502    0 -0.19692400517E+02  0.64894080794E+01  0.20685707207E+02  0.29288249256E+02  0.25500000000E-02 0.  1.
<mgrwt>
<rscale>  0 0.67833644E+02</rscale>
<asrwt>0</asrwt>
<pdfrwt beam="1">  1        2 0.36853458E-01 0.67833644E+02</pdfrwt>
<pdfrwt beam="2">  1       -2 0.73879737E-03 0.67833644E+02</pdfrwt>
<totfact> 0.36013163E+05</totfact>
</mgrwt>
</event>
<event>
 4    1  0.4696545E-002  0.6673409E+02  0.7818608E-02  0.1371565E+00
         -2   -1    0    0  501    0 -0.00000000000E+00  0.00000000000E+00  0.12172102451E+01  0.12172129161E+01  0.25500000000E-02 0.  1.
          2   -1    0    0    0  501  0.00000000000E+00 -0.00000000000E+00 -0.91468053138E+03  0.91468053139E+03  0.25500000000E-02 0.  1.
          2    1    1    2    0  502  0.29609415662E+01  0.33215738452E+02 -0.47242382743E+03  0.47359932980E+03  0.25500000000E-02 0. -1.
         -2    1    1    2  502    0 -0.29609415662E+01 -0.33215738452E+02 -0.44103949371E+03  0.44229841450E+03  0.25500000000E-02 0. -1.
<mgrwt>
<rscale>  0 0.66734091E+02</rscale>
<asrwt>0</asrwt>
<pdfrwt beam="2">  1        2 0.14071953E+00 0.66734091E+02</pdfrwt>
<pdfrwt beam="1">  1       -2 0.18726405E-03 0.66734091E+02</pdfrwt>
<totfact> 0.55768015E+05</totfact>
</mgrwt>
</event>
<event>
 4    1  0.4696545E-002  0.6124402E+02  0.7818608E-02  0.1392684E+00
          2   -1    0    0    0  501  0.00000000000E+00  0.00000000000E+00  0.11338212196E+03  0.11338212199E+03  0.25500000000E-02 0. -1.
         -2   -1    0    0  501    0 -0.00000000000E+00 -0.00000000000E+00 -0.82703296416E+01  0.82703300348E+01  0.25500000000E-02 0. -1.
          2    1    1    2    0  502  0.10160745217E+02  0.28843883831E+02  0.49416972025E+02  0.58114090447E+02  0.25500000000E-02 0.  1.
         -2    1    1    2  502    0 -0.10160745217E+02 -0.28843883831E+02  0.55694820295E+02  0.63538361578E+02  0.25500000000E-02 0.  1.
<mgrwt>
<rscale>  0 0.61244022E+02</rscale>
<asrwt>0</asrwt>
<pdfrwt beam="1">  1        2 0.17443403E-01 0.61244022E+02</pdfrwt>
<pdfrwt beam="2">  1       -2 0.12723584E-02 0.61244022E+02</pdfrwt>
<totfact> 0.36834175E+05</totfact>
</mgrwt>
</event>
<event>
 4    1  0.4696545E-002  0.5777739E+02  0.7818608E-02  0.1407403E+00
         -2   -1    0    0  501    0 -0.00000000000E+00  0.00000000000E+00  0.22394723769E+02  0.22394723914E+02  0.25500000000E-02 0. -1.
          2   -1    0    0    0  501  0.00000000000E+00 -0.00000000000E+00 -0.37265767308E+02  0.37265767395E+02  0.25500000000E-02 0. -1.
          2    1    1    2    0  502 -0.20705808937E+02 -0.13204966905E+02  0.82739694580E+01  0.25914479578E+02  0.25500000000E-02 0.  1.
         -2    1    1    2  502    0  0.20705808937E+02  0.13204966905E+02 -0.23145012996E+02  0.33746011732E+02  0.25500000000E-02 0.  1.
<mgrwt>
<rscale>  0 0.57777386E+02</rscale>
<asrwt>0</asrwt>
<pdfrwt beam="2">  1        2 0.57331950E-02 0.57777386E+02</pdfrwt>
<pdfrwt beam="1">  1       -2 0.34453421E-02 0.57777386E+02</pdfrwt>
<totfact> 0.33273098E+05</totfact>
</mgrwt>
</event>
<event>
 4    1  0.4696545E-002  0.4959263E+02  0.7818608E-02  0.1447551E+00
          2   -1    0    0    0  501  0.00000000000E+00  0.00000000000E+00  0.12469252643E+04  0.12469252643E+04  0.25500000000E-02 0.  1.
         -2   -1    0    0  501    0 -0.00000000000E+00 -0.00000000000E+00 -0.49309547361E+00  0.49310206712E+00  0.25500000000E-02 0.  1.
          2    1    1    2    0  502  0.22314384511E+02 -0.93627584884E+01  0.48714554700E+03  0.48774622190E+03  0.25500000000E-02 0.  1.
         -2    1    1    2  502    0 -0.22314384511E+02  0.93627584884E+01  0.75928662180E+03  0.75967214445E+03  0.25500000000E-02 0.  1.
<mgrwt>
<rscale>  0 0.49592633E+02</rscale>
<asrwt>0</asrwt>
<pdfrwt beam="1">  1        2 0.19183243E+00 0.49592633E+02</pdfrwt>
<pdfrwt beam="2">  1       -2 0.75862229E-04 0.49592633E+02</pdfrwt>
<totfact> 0.11702407E+06</totfact>
</mgrwt>
</event>
<event>
 4    1  0.4696545E-002  0.8625717E+02  0.7818608E-02  0.1312177E+00
         -2   -1    0    0  501    0 -0.00000000000E+00  0.00000000000E+00  0.14643703068E+01  0.14643725270E+01  0.25500000000E-02 0. -1.
          2   -1    0    0    0  501  0.00000000000E+00 -0.00000000000E+00 -0.12702206242E+04  0.12702206242E+04  0.25500000000E-02 0. -1.
          2    1    1    2    0  502 -0.21032677161E+02 -0.36199882387E+02 -0.48168375076E+03  0.48349978360E+03  0.25500000000E-02 0. -1.
         -2    1    1    2  502    0  0.21032677161E+02  0.36199882387E+02 -0.78707250313E+03  0.78818521312E+03  0.25500000000E-02 0. -1.
<mgrwt>
<rscale>  0 0.86257168E+02</rscale>
<asrwt>0</asrwt>
<pdfrwt beam="2">  1        2 0.19541768E+00 0.86257168E+02</pdfrwt>
<pdfrwt beam="1">  1       -2 0.22528893E-03 0.86257168E+02</pdfrwt>
<totfact> 0.28542192E+05</totfact>
</mgrwt>
</event>
<event>
 4    1  0.4696545E-002  0.5474541E+02  0.7818608E-02  0.1421307E+00
          2   -1    0    0    0  501  0.00000000000E+00  0.00000000000E+00  0.22057192993E+03  0.22057192994E+03  0.25500000000E-02 0.  1.
         -2   -1    0    0  501    0 -0.00000000000E+00 -0.00000000000E+00 -0.33969186088E+01  0.33969195659E+01  0.25500000000E-02 0.  1.
          2    1    1    2    0  502 -0.22375758201E+02 -0.15730041066E+02  0.10418838857E+03  0.10771874984E+03  0.25500000000E-02 0.  1.
         -2    1    1    2  502    0  0.22375758201E+02  0.15730041066E+02  0.11298662274E+03  0.11625009966E+03  0.25500000000E-02 0.  1.
<mgrwt>
<rscale>  0 0.54745411E+02</rscale>
<asrwt>0</asrwt>
<pdfrwt beam="1">  1        2 0.33934156E-01 0.54745411E+02</pdfrwt>
<pdfrwt beam="2">  1       -2 0.52260273E-03 0.54745411E+02</pdfrwt>
<totfact> 0.60566206E+05</totfact>
</mgrwt>
</event>
<event>
 4    1  0.4696545E-002  0.5810829E+02  0.7818608E-02  0.1405946E+00
         -2   -1    0    0  501    0 -0.00000000000E+00  0.00000000000E+00  0.10106963164E+02  0.10106963486E+02  0.25500000000E-02 0.  1.
          2   -1    0    0    0  501  0.00000000000E+00 -0.00000000000E+00 -0.83520977007E+02  0.83520977046E+02  0.25500000000E-02 0.  1.
          2    1    1    2    0  502 -0.27217915820E+02  0.71550872605E+01 -0.48340889492E+02  0.55936140541E+02  0.25500000000E-02 0.  1.
         -2    1    1    2  502    0  0.27217915820E+02 -0.71550872605E+01 -0.25073124351E+02  0.37691799991E+02  0.25500000000E-02 0.  1.
<mgrwt>
<rscale>  0 0.58108294E+02</rscale>
<asrwt>0</asrwt>
<pdfrwt beam="2">  1        2 0.12849381E-01 0.58108294E+02</pdfrwt>
<pdfrwt beam="1">  1       -2 0.15549175E-02 0.58108294E+02</pdfrwt>
<totfact> 0.38908017E+05</totfact>
</mgrwt>
</event>
<event>
 4    1  0.4696545E-002  0.4470152E+02  0.7818608E-02  0.1476214E+00
         -2   -1    0    0  501    0 -0.00000000000E+00  0.00000000000E+00  0.68892225477E+03  0.68892225478E+03  0.25500000000E-02 0.  1.
          2   -1    0    0    0  501  0.00000000000E+00 -0.00000000000E+00 -0.72512516923E+00  0.72512965292E+00  0.25500000000E-02 0.  1.
          2    1    1    2    0  502  0.92115680796E+01 -0.19556888551E+02  0.43168670376E+03  0.43222764267E+03  0.25500000000E-02 0. -1.
         -2    1    1    2  502    0 -0.92115680796E+01  0.19556888551E+02  0.25651042584E+03  0.25741974176E+03  0.25500000000E-02 0. -1.
<mgrwt>
<rscale>  0 0.44701517E+02</rscale>
<asrwt>0</asrwt>
<pdfrwt beam="2">  1        2 0.11155785E-03 0.44701517E+02</pdfrwt>
<pdfrwt beam="1">  1       -2 0.10598824E+00 0.44701517E+02</pdfrwt>
<totfact> 0.16554226E+05</totfact>
</mgrwt>
</event>
<event>
 4    1  0.4696545E-002  0.4178574E+02  0.7818608E-02  0.1495467E+00
          2   -1    0    0    0  501  0.00000000000E+00  0.00000000000E+00  0.62530026357E+03  0.62530026358E+03  0.25500000000E-02 0. -1.
         -2   -1    0    0  501    0 -0.00000000000E+00 -0.00000000000E+00 -0.69808150863E+00  0.69808616602E+00  0.25500000000E-02 0. -1.
          2    1    1    2    0  502  0.10009472821E+02  0.18029987726E+02  0.26207066093E+03  0.26288077398E+03  0.25500000000E-02 0.  1.
         -2    1    1    2  502    0 -0.10009472821E+02 -0.18029987726E+02  0.36253152114E+03  0.36311757576E+03  0.25500000000E-02 0.  1.
<mgrwt>
<rscale>  0 0.41785740E+02</rscale>
<asrwt>0</asrwt>
<pdfrwt beam="1">  1        2 0.96200505E-01 0.41785740E+02</pdfrwt>
<pdfrwt beam="2">  1       -2 0.10739700E-03 0.41785740E+02</pdfrwt>
<totfact> 0.16599839E+06</totfact>
</mgrwt>
</event>
<event>
 4    1  0.4696545E-002  0.1020303E+03  0.7818608E-02  0.1276084E+00
          2   -1    0    0    0  501  0.00000000000E+00  0.00000000000E+00  0.51685584226E+03  0.51685584227E+03  0.25500000000E-02 0.  1.
         -2   -1    0    0  501    0 -0.00000000000E+00 -0.00000000000E+00 -0.50353374283E+01  0.50353380739E+01  0.25500000000E-02 0.  1.
          2    1    1    2    0  502 -0.58419749391E+01 -0.32539213861E+02  0.57170845139E+02  0.66041158760E+02  0.25500000000E-02 0. -1.
         -2    1    1    2  502    0  0.58419749391E+01  0.32539213861E+02  0.45464965969E+03  0.45585002158E+03  0.25500000000E-02 0. -1.
<mgrwt>
<rscale>  0 0.10203026E+03</rscale>
<asrwt>0</asrwt>
<pdfrwt beam="1">  1        2 0.79516214E-01 0.10203026E+03</pdfrwt>
<pdfrwt beam="2">  1       -2 0.77466803E-03 0.10203026E+03</pdfrwt>
<totfact> 0.16146065E+05</totfact>
</mgrwt>
</event>
<event>
 4    1  0.4696545E-002  0.5806626E+02  0.7818608E-02  0.1406131E+00
         -2   -1    0    0  501    0 -0.00000000000E+00  0.00000000000E+00  0.76283195982E+03  0.76283195982E+03  0.25500000000E-02 0.  1.
          2   -1    0    0    0  501  0.00000000000E+00 -0.00000000000E+00 -0.11049898373E+01  0.11049927797E+01  0.25500000000E-02 0.  1.
          2    1    1    2    0  502 -0.25238312452E+02 -0.52784009606E+01  0.55643412540E+03  0.55703121083E+03  0.25500000000E-02 0. -1.
         -2    1    1    2  502    0  0.25238312452E+02  0.52784009606E+01  0.20529284458E+03  0.20690574177E+03  0.25500000000E-02 0. -1.
<mgrwt>
<rscale>  0 0.58066262E+02</rscale>
<asrwt>0</asrwt>
<pdfrwt beam="2">  1        2 0.16999970E-03 0.58066262E+02</pdfrwt>
<pdfrwt beam="1">  1       -2 0.11735805E+00 0.58066262E+02</pdfrwt>
<totfact> 0.78936339E+04</totfact>
</mgrwt>
</event>
<event>
 4    1  0.4696545E-002  0.4712150E+02  0.7818608E-02  0.1461516E+00
          2   -1    0    0    0  501  0.00000000000E+00  0.00000000000E+00  0.12904531006E+04  0.12904531006E+04  0.25500000000E-02 0.  1.
         -2   -1    0    0  501    0 -0.00000000000E+00 -0.00000000000E+00 -0.43016206664E+00  0.43016962477E+00  0.25500000000E-02 0.  1.
          2    1    1    2    0  502  0.15405722804E+02  0.13945360685E+02  0.34081897176E+03  0.34145187201E+03  0.25500000000E-02 0. -1.
         -2    1    1    2  502    0 -0.15405722804E+02 -0.13945360685E+02  0.94920396677E+03  0.94943139821E+03  0.25500000000E-02 0. -1.
<mgrwt>
<rscale>  0 0.47121496E+02</rscale>
<asrwt>0</asrwt>
<pdfrwt beam="1">  1        2 0.19852795E+00 0.47121496E+02</pdfrwt>
<pdfrwt beam="2">  1       -2 0.66180460E-04 0.47121496E+02</pdfrwt>
<totfact> 0.13200862E+06</totfact>
</mgrwt>
</event>
<event>
 4    1  0.4696545E-002  0.5341843E+02  0.7818608E-02  0.1427730E+00
         -2   -1    0    0  501    0 -0.00000000000E+00  0.00000000000E+00  0.13835435956E+02  0.13835436191E+02  0.25500000000E-02 0. -1.
          2   -1    0    0    0  501  0.00000000000E+00 -0.00000000000E+00 -0.51561963956E+02  0.51561964019E+02  0.25500000000E-02 0. -1.
          2    1    1    2    0  502  0.26438698234E+02 -0.27810659068E+01 -0.15707847169E+02  0.30878399588E+02  0.25500000000E-02 0. -1.
         -2    1    1    2  502    0 -0.26438698234E+02  0.27810659068E+01 -0.22018680831E+02  0.34519000622E+02  0.25500000000E-02 0. -1.
<mgrwt>
<rscale>  0 0.53418434E+02</rscale>
<asrwt>0</asrwt>
<pdfrwt beam="2">  1        2 0.79326098E-02 0.53418434E+02</pdfrwt>
<pdfrwt beam="1">  1       -2 0.21285286E-02 0.53418434E+02</pdfrwt>
<totfact> 0.43495398E+05</totfact>
</mgrwt>
</event>
<event>
 4    1  0.4696545E-002  0.5345911E+02  0.7818608E-02  0.1427530E+00
          2   -1    0    0    0  501  0.00000000000E+00  0.00000000000E+00  0.10183481320E+04  0.10183481320E+04  0.25500000000E-02 0.  1.
         -2   -1    0    0  501    0 -0.00000000000E+00 -0.00000000000E+00 -0.70159377585E+00  0.70159840993E+00  0.25500000000E-02 0.  1.
          2    1    1    2    0  502 -0.10967707483E+02  0.17488580266E+02  0.83250418196E+03  0.83276008192E+03  0.25500000000E-02 0.  1.
         -2    1    1    2  502    0  0.10967707483E+02 -0.17488580266E+02  0.18514235622E+03  0.18628964846E+03  0.25500000000E-02 0.  1.
<mgrwt>
<rscale>  0 0.53459109E+02</rscale>
<asrwt>0</asrwt>
<pdfrwt beam="1">  1        2 0.15666782E+00 0.53459109E+02</pdfrwt>
<pdfrwt beam="2">  1       -2 0.10793863E-03 0.53459109E+02</pdfrwt>
<totfact> 0.98165273E+05</totfact>
</mgrwt>
</event>
<event>
 4    1  0.4696545E-002  0.9400104E+02  0.7818608E-02  0.1293442E+00
         -2   -1    0    0  501    0 -0.00000000000E+00  0.00000000000E+00  0.57233769570E+01  0.57233775251E+01  0.25500000000E-02 0. -1.
          2   -1    0    0    0  501  0.00000000000E+00 -0.00000000000E+00 -0.38596949668E+03  0.38596949669E+03  0.25500000000E-02 0. -1.
          2    1    1    2    0  502  0.11604006166E+02 -0.42764284750E+02 -0.25542676249E+03  0.25924171734E+03  0.25500000000E-02 0.  1.
         -2    1    1    2  502    0 -0.11604006166E+02  0.42764284750E+02 -0.12481935723E+03  0.13245115687E+03  0.25500000000E-02 0.  1.
<mgrwt>
<rscale>  0 0.94001043E+02</rscale>
<asrwt>0</asrwt>
<pdfrwt beam="2">  1        2 0.59379902E-01 0.94001043E+02</pdfrwt>
<pdfrwt beam="1">  1       -2 0.88051988E-03 0.94001043E+02</pdfrwt>
<totfact> 0.18170945E+05</totfact>
</mgrwt>
</event>
<event>
 4    1  0.4696545E-002  0.1384662E+03  0.7818608E-02  0.1215408E+00
          2   -1    0    0    0  501  0.00000000000E+00  0.00000000000E+00  0.16242242402E+04  0.16242242402E+04  0.25500000000E-02 0. -1.
         -2   -1    0    0  501    0 -0.00000000000E+00 -0.00000000000E+00 -0.29510845423E+01  0.29510856440E+01  0.25500000000E-02 0. -1.
          2    1    1    2    0  502  0.55928968578E+02  0.38893241854E+02  0.66552188305E+03  0.66899933529E+03  0.25500000000E-02 0.  1.
         -2    1    1    2  502    0 -0.55928968578E+02 -0.38893241854E+02  0.95575127263E+03  0.95817599058E+03  0.25500000000E-02 0.  1.
<mgrwt>
<rscale>  0 0.13846623E+03</rscale>
<asrwt>0</asrwt>
<pdfrwt beam="1">  1        2 0.24988111E+00 0.13846623E+03</pdfrwt>
<pdfrwt beam="2">  1       -2 0.45401227E-03 0.13846623E+03</pdfrwt>
<totfact> 0.74086761E+04</totfact>
</mgrwt>
</event>
<event>
 4    1  0.4696545E-002  0.5203247E+02  0.7818608E-02  0.1434677E+00
          2   -1    0    0    0  501  0.00000000000E+00  0.00000000000E+00  0.26820786601E+03  0.26820786602E+03  0.25500000000E-02 0. -1.
         -2   -1    0    0  501    0 -0.00000000000E+00 -0.00000000000E+00 -0.25235813764E+01  0.25235826647E+01  0.25500000000E-02 0. -1.
          2    1    1    2    0  502  0.19887384699E+02  0.95555711066E+01  0.61116819563E+02  0.64977554966E+02  0.25500000000E-02 0.  1.
         -2    1    1    2  502    0 -0.19887384699E+02 -0.95555711066E+01  0.20456746507E+03  0.20575389372E+03  0.25500000000E-02 0.  1.
<mgrwt>
<rscale>  0 0.52032473E+02</rscale>
<asrwt>0</asrwt>
<pdfrwt beam="1">  1        2 0.41262739E-01 0.52032473E+02</pdfrwt>
<pdfrwt beam="2">  1       -2 0.38824348E-03 0.52032473E+02</pdfrwt>
<totfact> 0.73644428E+05</totfact>
</mgrwt>
</event>
<event>
 4    1  0.4696545E-002  0.4577493E+02  0.7818608E-02  0.1469561E+00
         -2   -1    0    0  501    0 -0.00000000000E+00  0.00000000000E+00  0.32079463409E+01  0.32079473544E+01  0.25500000000E-02 0.  1.
          2   -1    0    0    0  501  0.00000000000E+00 -0.00000000000E+00 -0.16329321575E+03  0.16329321577E+03  0.25500000000E-02 0.  1.
          2    1    1    2    0  502  0.21122610727E+02  0.42315695754E+00 -0.48022832936E+02  0.52464618892E+02  0.25500000000E-02 0. -1.
         -2    1    1    2  502    0 -0.21122610727E+02 -0.42315695754E+00 -0.11206243647E+03  0.11403654423E+03  0.25500000000E-02 0. -1.
<mgrwt>
<rscale>  0 0.45774926E+02</rscale>
<asrwt>0</asrwt>
<pdfrwt beam="2">  1        2 0.25122027E-01 0.45774926E+02</pdfrwt>
<pdfrwt beam="1">  1       -2 0.49353041E-03 0.45774926E+02</pdfrwt>
<totfact> 0.85951696E+05</totfact>
</mgrwt>
</event>
<event>
 4    1  0.4696545E-002  0.1147861E+03  0.7818608E-02  0.1251955E+00
         -2   -1    0    0  501    0 -0.00000000000E+00  0.00000000000E+00  0.56541159578E+03  0.56541159579E+03  0.25500000000E-02 0. -1.
          2   -1    0    0    0  501  0.00000000000E+00 -0.00000000000E+00 -0.58257749856E+01  0.58257755437E+01  0.25500000000E-02 0. -1.
          2    1    1    2    0  502 -0.75531954491E+00  0.31133356915E+02  0.39879115949E+02  0.50598422068E+02  0.25500000000E-02 0. -1.
         -2    1    1    2  502    0  0.75531954491E+00 -0.31133356915E+02  0.51970670485E+03  0.52063894927E+03  0.25500000000E-02 0. -1.
<mgrwt>
<rscale>  0 0.11478608E+03</rscale>
<asrwt>0</asrwt>
<pdfrwt beam="2">  1        2 0.89627283E-03 0.11478608E+03</pdfrwt>
<pdfrwt beam="1">  1       -2 0.86986428E-01 0.11478608E+03</pdfrwt>
<totfact> 0.18020444E+04</totfact>
</mgrwt>
</event>
<event>
 4    1  0.4696545E-002  0.4321127E+02  0.7818608E-02  0.1485828E+00
         -2   -1    0    0  501    0 -0.00000000000E+00  0.00000000000E+00  0.75758050823E+00  0.75758479984E+00  0.25500000000E-02 0.  1.
          2   -1    0    0    0  501  0.00000000000E+00 -0.00000000000E+00 -0.61617503600E+03  0.61617503600E+03  0.25500000000E-02 0.  1.
          2    1    1    2    0  502 -0.20783950002E+02 -0.52680622296E+01 -0.34569354342E+03  0.34635783668E+03  0.25500000000E-02 0. -1.
         -2    1    1    2  502    0  0.20783950002E+02  0.52680622296E+01 -0.26972391207E+03  0.27057478413E+03  0.25500000000E-02 0. -1.
<mgrwt>
<rscale>  0 0.43211273E+02</rscale>
<asrwt>0</asrwt>
<pdfrwt beam="2">  1        2 0.94795759E-01 0.43211273E+02</pdfrwt>
<pdfrwt beam="1">  1       -2 0.11655167E-03 0.43211273E+02</pdfrwt>
<totfact> 0.15246637E+06</totfact>
</mgrwt>
</event>
<event>
 4    1  0.4696545E-002  0.1084219E+03  0.7818608E-02  0.1263520E+00
          2   -1    0    0    0  501  0.00000000000E+00  0.00000000000E+00  0.72776422419E+03  0.72776422419E+03  0.25500000000E-02 0. -1.
         -2   -1    0    0  501    0 -0.00000000000E+00 -0.00000000000E+00 -0.40381592493E+01  0.40381600544E+01  0.25500000000E-02 0. -1.
          2    1    1    2    0  502 -0.39682704374E+02 -0.34834134417E+02  0.44471922343E+03  0.44784296539E+03  0.25500000000E-02 0. -1.
         -2    1    1    2  502    0  0.39682704374E+02  0.34834134417E+02  0.27900684150E+03  0.28395941886E+03  0.25500000000E-02 0. -1.
<mgrwt>
<rscale>  0 0.10842192E+03</rscale>
<asrwt>0</asrwt>
<pdfrwt beam="1">  1        2 0.11196376E+00 0.10842192E+03</pdfrwt>
<pdfrwt beam="2">  1       -2 0.62125515E-03 0.10842192E+03</pdfrwt>
<totfact> 0.15090241E+05</totfact>
</mgrwt>
</event>
<event>
 4    1  0.4696545E-002  0.5302743E+02  0.7818608E-02  0.1429664E+00
         -2   -1    0    0  501    0 -0.00000000000E+00  0.00000000000E+00  0.27507789803E+03  0.27507789805E+03  0.25500000000E-02 0. -1.
          2   -1    0    0    0  501  0.00000000000E+00 -0.00000000000E+00 -0.25555552877E+01  0.25555565599E+01  0.25500000000E-02 0. -1.
          2    1    1    2    0  502  0.24554379772E+02  0.85373434554E+00  0.84080145584E+02  0.87596331637E+02  0.25500000000E-02 0. -1.
         -2    1    1    2  502    0 -0.24554379772E+02 -0.85373434554E+00  0.18844219716E+03  0.19003712297E+03  0.25500000000E-02 0. -1.
<mgrwt>
<rscale>  0 0.53027425E+02</rscale>
<asrwt>0</asrwt>
<pdfrwt beam="2">  1        2 0.39316266E-03 0.53027425E+02</pdfrwt>
<pdfrwt beam="1">  1       -2 0.42319654E-01 0.53027425E+02</pdfrwt>
<totfact> 0.21042705E+05</totfact>
</mgrwt>
</event>
<event>
 4    1  0.4696545E-002  0.5090395E+02  0.7818608E-02  0.1440526E+00
          2   -1    0    0    0  501  0.00000000000E+00  0.00000000000E+00  0.32651724686E+00  0.32652720407E+00  0.25500000000E-02 0. -1.
         -2   -1    0    0  501    0 -0.00000000000E+00 -0.00000000000E+00 -0.19839479668E+04  0.19839479668E+04  0.25500000000E-02 0. -1.
          2    1    1    2    0  502 -0.20595265014E+02 -0.14249256070E+02 -0.81490137934E+03  0.81528612419E+03  0.25500000000E-02 0. -1.
         -2    1    1    2  502    0  0.20595265014E+02  0.14249256070E+02 -0.11687200702E+04  0.11689883699E+04  0.25500000000E-02 0. -1.
<mgrwt>
<rscale>  0 0.50903953E+02</rscale>
<asrwt>0</asrwt>
<pdfrwt beam="1">  1        2 0.50235777E-04 0.50903953E+02</pdfrwt>
<pdfrwt beam="2">  1       -2 0.30521311E+00 0.50903953E+02</pdfrwt>
<totfact> 0.26331703E+04</totfact>
</mgrwt>
</event>
<event>
 4    1  0.4696545E-002  0.5429310E+02  0.7818608E-02  0.1423472E+00
          2   -1    0    0    0  501  0.00000000000E+00  0.00000000000E+00  0.15848040224E+04  0.15848040224E+04  0.25500000000E-02 0.  1.
         -2   -1    0    0  501    0 -0.00000000000E+00 -0.00000000000E+00 -0.46499725080E+00  0.46500424273E+00  0.25500000000E-02 0.  1.
          2    1    1    2    0  502 -0.92405707603E+01 -0.18935988553E+02  0.29239531605E+03  0.29315351040E+03  0.25500000000E-02 0. -1.
         -2    1    1    2  502    0  0.92405707603E+01  0.18935988553E+02  0.12919437091E+04  0.12921155162E+04  0.25500000000E-02 0. -1.
<mgrwt>
<rscale>  0 0.54293096E+02</rscale>
<asrwt>0</asrwt>
<pdfrwt beam="1">  1        2 0.24381314E+00 0.54293096E+02</pdfrwt>
<pdfrwt beam="2">  1       -2 0.71539416E-04 0.54293096E+02</pdfrwt>
<totfact> 0.87321162E+05</totfact>
</mgrwt>
</event>
<event>
 4    1  0.4696545E-002  0.7920039E+02  0.7818608E-02  0.1331336E+00
         -2   -1    0    0  501    0 -0.00000000000E+00  0.00000000000E+00  0.15216655576E+01  0.15216676943E+01  0.25500000000E-02 0.  1.
          2   -1    0    0    0  501  0.00000000000E+00 -0.00000000000E+00 -0.10305643852E+04  0.10305643852E+04  0.25500000000E-02 0.  1.
          2    1    1    2    0  502 -0.23328511608E+02  0.31592984748E+02 -0.44828005696E+03  0.44999705068E+03  0.25500000000E-02 0.  1.
         -2    1    1    2  502    0  0.23328511608E+02 -0.31592984748E+02 -0.58076266271E+03  0.58208900225E+03  0.25500000000E-02 0.  1.
<mgrwt>
<rscale>  0 0.79200390E+02</rscale>
<asrwt>0</asrwt>
<pdfrwt beam="2">  1        2 0.15854781E+00 0.79200390E+02</pdfrwt>
<pdfrwt beam="1">  1       -2 0.23410338E-03 0.79200390E+02</pdfrwt>
<totfact> 0.36163523E+05</totfact>
</mgrwt>
</event>
<event>
 4    1  0.4696545E-002  0.4185754E+02  0.7818608E-02  0.1494970E+00
         -2   -1    0    0  501    0 -0.00000000000E+00  0.00000000000E+00  0.52845218080E+01  0.52845224233E+01  0.25500000000E-02 0.  1.
          2   -1    0    0    0  501  0.00000000000E+00 -0.00000000000E+00 -0.82886100806E+02  0.82886100845E+02  0.25500000000E-02 0.  1.
          2    1    1    2    0  502 -0.86563860322E+01 -0.19045399578E+02 -0.37548977034E+02  0.42983554379E+02  0.25500000000E-02 0.  1.
         -2    1    1    2  502    0  0.86563860322E+01  0.19045399578E+02 -0.40052601963E+02  0.45187068889E+02  0.25500000000E-02 0.  1.
<mgrwt>
<rscale>  0 0.41857541E+02</rscale>
<asrwt>0</asrwt>
<pdfrwt beam="2">  1        2 0.12751707E-01 0.41857541E+02</pdfrwt>
<pdfrwt beam="1">  1       -2 0.81300346E-03 0.41857541E+02</pdfrwt>
<totfact> 0.89285351E+05</totfact>
</mgrwt>
</event>
<event>
 4    1  0.4696545E-002  0.1611557E+03  0.7818608E-02  0.1187398E+00
          2   -1    0    0    0  501  0.00000000000E+00  0.00000000000E+00  0.42573424175E+03  0.42573424176E+03  0.25500000000E-02 0.  1.
         -2   -1    0    0  501    0 -0.00000000000E+00 -0.00000000000E+00 -0.15250810010E+02  0.15250810223E+02  0.25500000000E-02 0.  1.
          2    1    1    2    0  502 -0.17139946894E+02  0.73076317696E+02  0.28543552694E+03  0.29513957043E+03  0.25500000000E-02 0.  1.
         -2    1    1    2  502    0  0.17139946894E+02 -0.73076317696E+02  0.12504790480E+03  0.14584548155E+03  0.25500000000E-02 0.  1.
<mgrwt>
<rscale>  0 0.16115573E+03</rscale>
<asrwt>0</asrwt>
<pdfrwt beam="1">  1        2 0.65497581E-01 0.16115573E+03</pdfrwt>
<pdfrwt beam="2">  1       -2 0.23462783E-02 0.16115573E+03</pdfrwt>
<totfact> 0.42937844E+04</totfact>
</mgrwt>
</event>
<event>
 4    1  0.4696545E-002  0.6194003E+02  0.7818608E-02  0.1389866E+00
         -2   -1    0    0  501    0 -0.00000000000E+00  0.00000000000E+00  0.13411414639E+02  0.13411414882E+02  0.25500000000E-02 0. -1.
          2   -1    0    0    0  501  0.00000000000E+00 -0.00000000000E+00 -0.71516815502E+02  0.71516815547E+02  0.25500000000E-02 0. -1.
          2    1    1    2    0  502  0.12666751035E+02 -0.23786012381E+02 -0.81267714928E+01  0.28147209243E+02  0.25500000000E-02 0.  1.
         -2    1    1    2  502    0 -0.12666751035E+02  0.23786012381E+02 -0.49978629370E+02  0.56781021186E+02  0.25500000000E-02 0.  1.
<mgrwt>
<rscale>  0 0.61940025E+02</rscale>
<asrwt>0</asrwt>
<pdfrwt beam="2">  1        2 0.11002587E-01 0.61940025E+02</pdfrwt>
<pdfrwt beam="1">  1       -2 0.20632946E-02 0.61940025E+02</pdfrwt>
<totfact> 0.31716748E+05</totfact>
</mgrwt>
</event>
<event>
 4    1  0.4696545E-002  0.5491814E+02  0.7818608E-02  0.1420486E+00
         -2   -1    0    0  501    0 -0.00000000000E+00  0.00000000000E+00  0.25900784031E+01  0.25900796584E+01  0.25500000000E-02 0.  1.
          2   -1    0    0    0  501  0.00000000000E+00 -0.00000000000E+00 -0.29111104427E+03  0.29111104428E+03  0.25500000000E-02 0.  1.
          2    1    1    2    0  502 -0.19970664306E+02  0.72555516419E+01 -0.23728000229E+03  0.23822944813E+03  0.25500000000E-02 0.  1.
         -2    1    1    2  502    0  0.19970664306E+02 -0.72555516419E+01 -0.51240963576E+02  0.55471675810E+02  0.25500000000E-02 0.  1.
<mgrwt>
<rscale>  0 0.54918143E+02</rscale>
<asrwt>0</asrwt>
<pdfrwt beam="2">  1        2 0.44786289E-01 0.54918143E+02</pdfrwt>
<pdfrwt beam="1">  1       -2 0.39847393E-03 0.54918143E+02</pdfrwt>
<totfact> 0.66178346E+05</totfact>
</mgrwt>
</event>
<event>
 4    1  0.4696545E-002  0.6105912E+02  0.7818608E-02  0.1393440E+00
         -2   -1    0    0  501    0 -0.00000000000E+00  0.00000000000E+00  0.16332854578E+03  0.16332854580E+03  0.25500000000E-02 0.  1.
          2   -1    0    0    0  501  0.00000000000E+00 -0.00000000000E+00 -0.57066206995E+01  0.57066212692E+01  0.25500000000E-02 0.  1.
          2    1    1    2    0  502 -0.29699992973E+02 -0.69373625196E+01  0.75058271551E+02  0.81018273964E+02  0.25500000000E-02 0.  1.
         -2    1    1    2  502    0  0.29699992973E+02  0.69373625196E+01  0.82563653531E+02  0.88016893107E+02  0.25500000000E-02 0.  1.
<mgrwt>
<rscale>  0 0.61059122E+02</rscale>
<asrwt>0</asrwt>
<pdfrwt beam="2">  1        2 0.87794153E-03 0.61059122E+02</pdfrwt>
<pdfrwt beam="1">  1       -2 0.25127473E-01 0.61059122E+02</pdfrwt>
<totfact> 0.18584517E+05</totfact>
</mgrwt>
</event>
<event>
 4    1  0.4696545E-002  0.5029122E+02  0.7818608E-02  0.1443777E+00
         -2   -1    0    0  501    0 -0.00000000000E+00  0.00000000000E+00  0.33434008938E+00  0.33434981362E+00  0.25500000000E-02 0. -1.
          2   -1    0    0    0  501  0.00000000000E+00 -0.00000000000E+00 -0.18911657388E+04  0.18911657388E+04  0.25500000000E-02 0. -1.
          2    1    1    2    0  502  0.24978881221E+02 -0.27849555450E+01 -0.97457884332E+03  0.97490287841E+03  0.25500000000E-02 0.  1.
         -2    1    1    2  502    0 -0.24978881221E+02  0.27849555450E+01 -0.91625255544E+03  0.91659721025E+03  0.25500000000E-02 0.  1.
<mgrwt>
<rscale>  0 0.50291221E+02</rscale>
<asrwt>0</asrwt>
<pdfrwt beam="2">  1        2 0.29094001E+00 0.50291221E+02</pdfrwt>
<pdfrwt beam="1">  1       -2 0.51439199E-04 0.50291221E+02</pdfrwt>
<totfact> 0.95067126E+05</totfact>
</mgrwt>
</event>
<event>
 4    1  0.4696545E-002  0.4370607E+02  0.7818608E-02  0.1482585E+00
         -2   -1    0    0  501    0 -0.00000000000E+00  0.00000000000E+00  0.27669982446E+01  0.27669994196E+01  0.25500000000E-02 0. -1.
          2   -1    0    0    0  501  0.00000000000E+00 -0.00000000000E+00 -0.17258956851E+03  0.17258956853E+03  0.25500000000E-02 0. -1.
          2    1    1    2    0  502  0.17323969733E+02  0.13182117210E+02 -0.92594361198E+02  0.95118893357E+02  0.25500000000E-02 0.  1.
         -2    1    1    2  502    0 -0.17323969733E+02 -0.13182117210E+02 -0.77228209068E+02  0.80237674592E+02  0.25500000000E-02 0.  1.
<mgrwt>
<rscale>  0 0.43706070E+02</rscale>
<asrwt>0</asrwt>
<pdfrwt beam="2">  1        2 0.26552233E-01 0.43706070E+02</pdfrwt>
<pdfrwt beam="1">  1       -2 0.42569227E-03 0.43706070E+02</pdfrwt>
<totfact> 0.98059367E+05</totfact>
</mgrwt>
</event>
<event>
 4    1  0.4696545E-002  0.1080127E+03  0.7818608E-02  0.1264295E+00
         -2   -1    0    0  501    0 -0.00000000000E+00  0.00000000000E+00  0.33293849071E+02  0.33293849168E+02  0.25500000000E-02 0.  1.
          2   -1    0    0    0  501  0.00000000000E+00 -0.00000000000E+00 -0.87604296121E+02  0.87604296158E+02  0.25500000000E-02 0.  1.
          2    1    1    2    0  502 -0.52103192352E+02  0.13867552031E+02 -0.30629111772E+02  0.62009629471E+02  0.25500000000E-02 0. -1.
         -2    1    1    2  502    0  0.52103192352E+02 -0.13867552031E+02 -0.23681335279E+02  0.58888515856E+02  0.25500000000E-02 0. -1.
<mgrwt>
<rscale>  0 0.10801267E+03</rscale>
<asrwt>0</asrwt>
<pdfrwt beam="2">  1        2 0.13477584E-01 0.10801267E+03</pdfrwt>
<pdfrwt beam="1">  1       -2 0.51221307E-02 0.10801267E+03</pdfrwt>
<totfact> 0.73279814E+04</totfact>
</mgrwt>
</event>
<event>
 4    1  0.4696545E-002  0.9503078E+02  0.7818608E-02  0.1291107E+00
         -2   -1    0    0  501    0 -0.00000000000E+00  0.00000000000E+00  0.15011229372E+01  0.15011251030E+01  0.25500000000E-02 0.  1.
          2   -1    0    0    0  501  0.00000000000E+00 -0.00000000000E+00 -0.15040144147E+04  0.15040144147E+04  0.25500000000E-02 0.  1.
          2    1    1    2    0  502  0.15949555019E+02 -0.44440460099E+02 -0.83563785521E+03  0.83697070909E+03  0.25500000000E-02 0.  1.
         -2    1    1    2  502    0 -0.15949555019E+02  0.44440460099E+02 -0.66687543654E+03  0.66854483071E+03  0.25500000000E-02 0.  1.
<mgrwt>
<rscale>  0 0.95030777E+02</rscale>
<asrwt>0</asrwt>
<pdfrwt beam="2">  1        2 0.23138563E+00 0.95030777E+02</pdfrwt>
<pdfrwt beam="1">  1       -2 0.23094336E-03 0.95030777E+02</pdfrwt>
<totfact> 0.21132255E+05</totfact>
</mgrwt>
</event>
<event>
 4    1  0.4696545E-002  0.6863907E+02  0.7818608E-02  0.1364783E+00
          2   -1    0    0    0  501  0.00000000000E+00  0.00000000000E+00  0.23803244745E+03  0.23803244746E+03  0.25500000000E-02 0. -1.
         -2   -1    0    0  501    0 -0.00000000000E+00 -0.00000000000E+00 -0.49481921098E+01  0.49481927668E+01  0.25500000000E-02 0. -1.
          2    1    1    2    0  502  0.16088142968E+02  0.27900490781E+02  0.74572190345E+02  0.81229780926E+02  0.25500000000E-02 0.  1.
         -2    1    1    2  502    0 -0.16088142968E+02 -0.27900490781E+02  0.15851206499E+03  0.16175085930E+03  0.25500000000E-02 0.  1.
<mgrwt>
<rscale>  0 0.68639066E+02</rscale>
<asrwt>0</asrwt>
<pdfrwt beam="1">  1        2 0.36620378E-01 0.68639066E+02</pdfrwt>
<pdfrwt beam="2">  1       -2 0.76126034E-03 0.68639066E+02</pdfrwt>
<totfact> 0.34849753E+05</totfact>
</mgrwt>
</event>
<event>
 4    1  0.4696545E-002  0.8088512E+02  0.7818608E-02  0.1326558E+00
          2   -1    0    0    0  501  0.00000000000E+00  0.00000000000E+00  0.14433851507E+04  0.14433851507E+04  0.25500000000E-02 0. -1.
         -2   -1    0    0  501    0 -0.00000000000E+00 -0.00000000000E+00 -0.11331685482E+01  0.11331714174E+01  0.25500000000E-02 0. -1.
          2    1    1    2    0  502  0.13711151822E+02 -0.15326040655E+02  0.13430455805E+04  0.13432030057E+04  0.25500000000E-02 0.  1.
         -2    1    1    2  502    0 -0.13711151822E+02  0.15326040655E+02  0.99206401611E+02  0.10131531638E+03  0.25500000000E-02 0.  1.
<mgrwt>
<rscale>  0 0.80885122E+02</rscale>
<asrwt>0</asrwt>
<pdfrwt beam="1">  1        2 0.22205851E+00 0.80885122E+02</pdfrwt>
<pdfrwt beam="2">  1       -2 0.17433443E-03 0.80885122E+02</pdfrwt>
<totfact> 0.32730461E+05</totfact>
</mgrwt>
</event>
<event>
 4    1  0.4696545E-002  0.4384756E+02  0.7818608E-02  0.1481667E+00
          2   -1    0    0    0  501  0.00000000000E+00  0.00000000000E+00  0.23563854145E+04  0.23563854145E+04  0.25500000000E-02 0.  1.
         -2   -1    0    0  501    0 -0.00000000000E+00 -0.00000000000E+00 -0.20397056950E+00  0.20398650868E+00  0.25500000000E-02 0.  1.
          2    1    1    2    0  502 -0.11930834410E+02  0.17847998816E+02  0.14169763405E+04  0.14171389648E+04  0.25500000000E-02 0.  1.
         -2    1    1    2  502    0  0.11930834410E+02 -0.17847998816E+02  0.93920510341E+03  0.93945043624E+03  0.25500000000E-02 0.  1.
<mgrwt>
<rscale>  0 0.43847557E+02</rscale>
<asrwt>0</asrwt>
<pdfrwt beam="1">  1        2 0.36253339E+00 0.43847557E+02</pdfrwt>
<pdfrwt beam="2">  1       -2 0.31380227E-04 0.43847557E+02</pdfrwt>
<totfact> 0.10621224E+06</totfact>
</mgrwt>
</event>
<event>
 4    1  0.4696545E-002  0.4954022E+02  0.7818608E-02  0.1447837E+00
          2   -1    0    0    0  501  0.00000000000E+00  0.00000000000E+00  0.15764593011E+04  0.15764593011E+04  0.25500000000E-02 0. -1.
         -2   -1    0    0  501    0 -0.00000000000E+00 -0.00000000000E+00 -0.38919611545E+00  0.38920446912E+00  0.25500000000E-02 0. -1.
          2    1    1    2    0  502 -0.14746496710E+02 -0.18702591809E+02  0.10046459213E+04  0.10049281931E+04  0.25500000000E-02 0. -1.
         -2    1    1    2  502    0  0.14746496710E+02  0.18702591809E+02  0.57142418367E+03  0.57192031245E+03  0.25500000000E-02 0. -1.
<mgrwt>
<rscale>  0 0.49540223E+02</rscale>
<asrwt>0</asrwt>
<pdfrwt beam="1">  1        2 0.24253074E+00 0.49540223E+02</pdfrwt>
<pdfrwt beam="2">  1       -2 0.59877328E-04 0.49540223E+02</pdfrwt>
<totfact> 0.10993913E+06</totfact>
</mgrwt>
</event>
<event>
 4    1  0.4696545E-002  0.9663678E+02  0.7818608E-02  0.1287532E+00
         -2   -1    0    0  501    0 -0.00000000000E+00  0.00000000000E+00  0.22961705194E+02  0.22961705336E+02  0.25500000000E-02 0.  1.
          2   -1    0    0    0  501  0.00000000000E+00 -0.00000000000E+00 -0.10167654374E+03  0.10167654377E+03  0.25500000000E-02 0.  1.
          2    1    1    2    0  502 -0.14823445289E+02  0.45986236056E+02 -0.38782947342E+02  0.61956318869E+02  0.25500000000E-02 0.  1.
         -2    1    1    2  502    0  0.14823445289E+02 -0.45986236056E+02 -0.39931891201E+02  0.62681930236E+02  0.25500000000E-02 0.  1.
<mgrwt>
<rscale>  0 0.96636780E+02</rscale>
<asrwt>0</asrwt>
<pdfrwt beam="2">  1        2 0.15642545E-01 0.96636780E+02</pdfrwt>
<pdfrwt beam="1">  1       -2 0.35325701E-02 0.96636780E+02</pdfrwt>
<totfact> 0.10498377E+05</totfact>
</mgrwt>
</event>
<event>
 4    1  0.4696545E-002  0.4802461E+02  0.7818608E-02  0.1456297E+00
         -2   -1    0    0  501    0 -0.00000000000E+00  0.00000000000E+00  0.16387378587E+01  0.16387398427E+01  0.25500000000E-02 0. -1.
          2   -1    0    0    0  501  0.00000000000E+00 -0.00000000000E+00 -0.35185030406E+03  0.35185030407E+03  0.25500000000E-02 0. -1.
          2    1    1    2    0  502 -0.99373653336E+01 -0.18715545450E+02 -0.25824057307E+03  0.25910850325E+03  0.25500000000E-02 0.  1.
         -2    1    1    2  502    0  0.99373653336E+01  0.18715545450E+02 -0.91970993134E+02  0.94380540663E+02  0.25500000000E-02 0.  1.
<mgrwt>
<rscale>  0 0.48024609E+02</rscale>
<asrwt>0</asrwt>
<pdfrwt beam="2">  1        2 0.54130756E-01 0.48024609E+02</pdfrwt>
<pdfrwt beam="1">  1       -2 0.25211395E-03 0.48024609E+02</pdfrwt>
<totfact> 0.98800065E+05</totfact>
</mgrwt>
</event>
<event>
 4    1  0.4696545E-002  0.7862923E+02  0.7818608E-02  0.1332987E+00
         -2   -1    0    0  501    0 -0.00000000000E+00  0.00000000000E+00  0.26049668324E+01  0.26049680805E+01  0.25500000000E-02 0.  1.
          2   -1    0    0    0  501  0.00000000000E+00 -0.00000000000E+00 -0.59334286452E+03  0.59334286452E+03  0.25500000000E-02 0.  1.
          2    1    1    2    0  502 -0.38478987257E+02  0.78889917061E+01 -0.28275416800E+03  0.28546941724E+03  0.25500000000E-02 0.  1.
         -2    1    1    2  502    0  0.38478987257E+02 -0.78889917061E+01 -0.30798372969E+03  0.31047841537E+03  0.25500000000E-02 0.  1.
<mgrwt>
<rscale>  0 0.78629228E+02</rscale>
<asrwt>0</asrwt>
<pdfrwt beam="2">  1        2 0.91283410E-01 0.78629228E+02</pdfrwt>
<pdfrwt beam="1">  1       -2 0.40076470E-03 0.78629228E+02</pdfrwt>
<totfact> 0.33482003E+05</totfact>
</mgrwt>
</event>
<event>
 4    1  0.4696545E-002  0.6460040E+02  0.7818608E-02  0.1379481E+00
          2   -1    0    0    0  501  0.00000000000E+00  0.00000000000E+00  0.72833722430E+03  0.72833722430E+03  0.25500000000E-02 0. -1.
         -2   -1    0    0  501    0 -0.00000000000E+00 -0.00000000000E+00 -0.14324437753E+01  0.14324460450E+01  0.25500000000E-02 0. -1.
          2    1    1    2    0  502 -0.16226309332E+02  0.18285876983E+02  0.12497841555E+03  0.12734704854E+03  0.25500000000E-02 0. -1.
         -2    1    1    2  502    0  0.16226309332E+02 -0.18285876983E+02  0.60192636497E+03  0.60242262181E+03  0.25500000000E-02 0. -1.
<mgrwt>
<rscale>  0 0.64600401E+02</rscale>
<asrwt>0</asrwt>
<pdfrwt beam="1">  1        2 0.11205195E+00 0.64600401E+02</pdfrwt>
<pdfrwt beam="2">  1       -2 0.22037600E-03 0.64600401E+02</pdfrwt>
<totfact> 0.58411585E+05</totfact>
</mgrwt>
</event>
<event>
 4    1  0.4696545E-002  0.8959929E+02  0.7818608E-02  0.1303825E+00
          2   -1    0    0    0  501  0.00000000000E+00  0.00000000000E+00  0.12249990966E+04  0.12249990966E+04  0.25500000000E-02 0. -1.
         -2   -1    0    0  501    0 -0.00000000000E+00 -0.00000000000E+00 -0.16383743284E+01  0.16383763128E+01  0.25500000000E-02 0. -1.
          2    1    1    2    0  502 -0.64376904799E+01 -0.43397648051E+02  0.48755223647E+03  0.48952219869E+03  0.25500000000E-02 0. -1.
         -2    1    1    2  502    0  0.64376904799E+01  0.43397648051E+02  0.73580848580E+03  0.73711527422E+03  0.25500000000E-02 0. -1.
<mgrwt>
<rscale>  0 0.89599292E+02</rscale>
<asrwt>0</asrwt>
<pdfrwt beam="1">  1        2 0.18846169E+00 0.89599292E+02</pdfrwt>
<pdfrwt beam="2">  1       -2 0.25205735E-03 0.89599292E+02</pdfrwt>
<totfact> 0.25972545E+05</totfact>
</mgrwt>
</event>
<event>
 4    1  0.4696545E-002  0.5769959E+02  0.7818608E-02  0.1407747E+00
         -2   -1    0    0  501    0 -0.00000000000E+00  0.00000000000E+00  0.10822780910E+02  0.10822781210E+02  0.25500000000E-02 0.  1.
          2   -1    0    0    0  501  0.00000000000E+00 -0.00000000000E+00 -0.76903591508E+02  0.76903591550E+02  0.25500000000E-02 0.  1.
          2    1    1    2    0  502  0.26039082165E+02 -0.12056863971E+02 -0.28502337531E+02  0.40444839226E+02  0.25500000000E-02 0. -1.
         -2    1    1    2  502    0 -0.26039082165E+02  0.12056863971E+02 -0.37578473068E+02  0.47281533535E+02  0.25500000000E-02 0. -1.
<mgrwt>
<rscale>  0 0.57699592E+02</rscale>
<asrwt>0</asrwt>
<pdfrwt beam="2">  1        2 0.11831321E-01 0.57699592E+02</pdfrwt>
<pdfrwt beam="1">  1       -2 0.16650433E-02 0.57699592E+02</pdfrwt>
<totfact> 0.38837627E+05</totfact>
</mgrwt>
</event>
<event>
 4    1  0.4696545E-002  0.1238672E+03  0.7818608E-02  0.1236850E+00
          2   -1    0    0    0  501  0.00000000000E+00  0.00000000000E+00  0.10297424446E+02  0.10297424761E+02  0.25500000000E-02 0. -1.
         -2   -1    0    0  501    0 -0.00000000000E+00 -0.00000000000E+00 -0.37249798686E+03  0.37249798687E+03  0.25500000000E-02 0. -1.
          2    1    1    2    0  502  0.21584998707E+02 -0.27958371617E+02 -0.33832046381E+03  0.34015925527E+03  0.25500000000E-02 0.  1.
         -2    1    1    2  502    0 -0.21584998707E+02  0.27958371617E+02 -0.23880098607E+02  0.42636156354E+02  0.25500000000E-02 0.  1.
<mgrwt>
<rscale>  0 0.12386719E+03</rscale>
<asrwt>0</asrwt>
<pdfrwt beam="1">  1        2 0.15842195E-02 0.12386719E+03</pdfrwt>
<pdfrwt beam="2">  1       -2 0.57307372E-01 0.12386719E+03</pdfrwt>
<totfact> 0.20164310E+04</totfact>
</mgrwt>
</event>
<event>
 4    1  0.4696545E-002  0.5187923E+02  0.7818608E-02  0.1435461E+00
          2   -1    0    0    0  501  0.00000000000E+00  0.00000000000E+00  0.70764708884E+03  0.70764708885E+03  0.25500000000E-02 0.  1.
         -2   -1    0    0  501    0 -0.00000000000E+00 -0.00000000000E+00 -0.95084451034E+00  0.95084792967E+00  0.25500000000E-02 0.  1.
          2    1    1    2    0  502  0.13658559054E+02  0.20842079321E+02  0.25493499720E+03  0.25614995864E+03  0.25500000000E-02 0. -1.
         -2    1    1    2  502    0 -0.13658559054E+02 -0.20842079321E+02  0.45176124713E+03  0.45244797814E+03  0.25500000000E-02 0. -1.
<mgrwt>
<rscale>  0 0.51879228E+02</rscale>
<asrwt>0</asrwt>
<pdfrwt beam="1">  1        2 0.10886847E+00 0.51879228E+02</pdfrwt>
<pdfrwt beam="2">  1       -2 0.14628445E-03 0.51879228E+02</pdfrwt>
<totfact> 0.10068015E+06</totfact>
</mgrwt>
</event>
<event>
 4    1  0.4696545E-002  0.4547888E+02  0.7818608E-02  0.1471374E+00
         -2   -1    0    0  501    0 -0.00000000000E+00  0.00000000000E+00  0.76258878426E+00  0.76259304769E+00  0.25500000000E-02 0. -1.
          2   -1    0    0    0  501  0.00000000000E+00 -0.00000000000E+00 -0.67805961069E+03  0.67805961070E+03  0.25500000000E-02 0. -1.
          2    1    1    2    0  502  0.10452390116E+02  0.19180166270E+02 -0.24430558275E+03  0.24528014393E+03  0.25500000000E-02 0. -1.
         -2    1    1    2  502    0 -0.10452390116E+02 -0.19180166270E+02 -0.43299143916E+03  0.43354205982E+03  0.25500000000E-02 0. -1.
<mgrwt>
<rscale>  0 0.45478879E+02</rscale>
<asrwt>0</asrwt>
<pdfrwt beam="2">  1        2 0.10431638E+00 0.45478879E+02</pdfrwt>
<pdfrwt beam="1">  1       -2 0.11732222E-03 0.45478879E+02</pdfrwt>
<totfact> 0.13785177E+06</totfact>
</mgrwt>
</event>
<event>
 4    1  0.4696545E-002  0.5988781E+02  0.7818608E-02  0.1398303E+00
          2   -1    0    0    0  501  0.00000000000E+00  0.00000000000E+00  0.31701721777E+01  0.31701732032E+01  0.25500000000E-02 0. -1.
         -2   -1    0    0  501    0 -0.00000000000E+00 -0.00000000000E+00 -0.28283548048E+03  0.28283548050E+03  0.25500000000E-02 0. -1.
          2    1    1    2    0  502  0.23234734912E+02 -0.96273232397E+00 -0.22992218207E+03  0.23109519591E+03  0.25500000000E-02 0. -1.
         -2    1    1    2  502    0 -0.23234734912E+02  0.96273232397E+00 -0.49743126240E+02  0.54910457789E+02  0.25500000000E-02 0. -1.
<mgrwt>
<rscale>  0 0.59887806E+02</rscale>
<asrwt>0</asrwt>
<pdfrwt beam="1">  1        2 0.48771910E-03 0.59887806E+02</pdfrwt>
<pdfrwt beam="2">  1       -2 0.43513131E-01 0.59887806E+02</pdfrwt>
<totfact> 0.15322672E+05</totfact>
</mgrwt>
</event>
<event>
 4    1  0.4696545E-002  0.4838721E+02  0.7818608E-02  0.1454240E+00
         -2   -1    0    0  501    0 -0.00000000000E+00  0.00000000000E+00  0.29584192960E+02  0.29584193070E+02  0.25500000000E-02 0. -1.
          2   -1    0    0    0  501  0.00000000000E+00 -0.00000000000E+00 -0.19785243118E+02  0.19785243282E+02  0.25500000000E-02 0. -1.
          2    1    1    2    0  502 -0.23083620925E+02 -0.42899441475E+01 -0.10562488779E+01  0.23502613556E+02  0.25500000000E-02 0.  1.
         -2    1    1    2  502    0  0.23083620925E+02  0.42899441475E+01  0.10855198720E+02  0.25866822796E+02  0.25500000000E-02 0.  1.
<mgrwt>
<rscale>  0 0.48387207E+02</rscale>
<asrwt>0</asrwt>
<pdfrwt beam="2">  1        2 0.30438836E-02 0.48387207E+02</pdfrwt>
<pdfrwt beam="1">  1       -2 0.45514143E-02 0.48387207E+02</pdfrwt>
<totfact> 0.47963363E+05</totfact>
</mgrwt>
</event>
<event>
 4    1  0.4696545E-002  0.4279456E+02  0.7818608E-02  0.1488599E+00
         -2   -1    0    0  501    0 -0.00000000000E+00  0.00000000000E+00  0.81747821300E+01  0.81747825277E+01  0.25500000000E-02 0.  1.
          2   -1    0    0    0  501  0.00000000000E+00 -0.00000000000E+00 -0.56006816782E+02  0.56006816840E+02  0.25500000000E-02 0.  1.
          2    1    1    2    0  502  0.18242124245E+02  0.96411787884E+01 -0.32415322973E+02  0.38424999614E+02  0.25500000000E-02 0. -1.
         -2    1    1    2  502    0 -0.18242124245E+02 -0.96411787884E+01 -0.15416711679E+02  0.25756599754E+02  0.25500000000E-02 0. -1.
<mgrwt>
<rscale>  0 0.42794558E+02</rscale>
<asrwt>0</asrwt>
<pdfrwt beam="2">  1        2 0.86164331E-02 0.42794558E+02</pdfrwt>
<pdfrwt beam="1">  1       -2 0.12576589E-02 0.42794558E+02</pdfrwt>
<totfact> 0.77829830E+05</totfact>
</mgrwt>
</event>
<event>
 4    1  0.4696545E-002  0.4858763E+02  0.7818608E-02  0.1453112E+00
         -2   -1    0    0  501    0 -0.00000000000E+00  0.00000000000E+00  0.14695039083E+01  0.14695061207E+01  0.25500000000E-02 0. -1.
          2   -1    0    0    0  501  0.00000000000E+00 -0.00000000000E+00 -0.40162471420E+03  0.40162471421E+03  0.25500000000E-02 0. -1.
          2    1    1    2    0  502  0.21804414540E+02 -0.94725692077E+01 -0.15857367003E+03  0.16034578540E+03  0.25500000000E-02 0.  1.
         -2    1    1    2  502    0 -0.21804414540E+02  0.94725692077E+01 -0.24158154027E+03  0.24274843494E+03  0.25500000000E-02 0.  1.
<mgrwt>
<rscale>  0 0.48587634E+02</rscale>
<asrwt>0</asrwt>
<pdfrwt beam="2">  1        2 0.61788330E-01 0.48587634E+02</pdfrwt>
<pdfrwt beam="1">  1       -2 0.22607801E-03 0.48587634E+02</pdfrwt>
<totfact> 0.10042048E+06</totfact>
</mgrwt>
</event>
<event>
 4    1  0.4696545E-002  0.4228838E+02  0.7818608E-02  0.1492016E+00
         -2   -1    0    0  501    0 -0.00000000000E+00  0.00000000000E+00  0.13031184607E+02  0.13031184856E+02  0.25500000000E-02 0.  1.
          2   -1    0    0    0  501  0.00000000000E+00 -0.00000000000E+00 -0.34308216604E+02  0.34308216699E+02  0.25500000000E-02 0.  1.
          2    1    1    2    0  502 -0.21020468161E+02 -0.17142035337E+01 -0.12328143696E+02  0.24429116009E+02  0.25500000000E-02 0.  1.
         -2    1    1    2  502    0  0.21020468161E+02  0.17142035337E+01 -0.89488883019E+01  0.22910285546E+02  0.25500000000E-02 0.  1.
<mgrwt>
<rscale>  0 0.42288377E+02</rscale>
<asrwt>0</asrwt>
<pdfrwt beam="2">  1        2 0.52781872E-02 0.42288377E+02</pdfrwt>
<pdfrwt beam="1">  1       -2 0.20047977E-02 0.42288377E+02</pdfrwt>
<totfact> 0.73792952E+05</totfact>
</mgrwt>
</event>
<event>
 4    1  0.4696545E-002  0.4702549E+02  0.7818608E-02  0.1462079E+00
          2   -1    0    0    0  501  0.00000000000E+00  0.00000000000E+00  0.15524989738E+03  0.15524989741E+03  0.25500000000E-02 0. -1.
         -2   -1    0    0  501    0 -0.00000000000E+00 -0.00000000000E+00 -0.35610265597E+01  0.35610274727E+01  0.25500000000E-02 0. -1.
          2    1    1    2    0  502  0.15587542657E+02  0.16595130021E+02  0.56014286171E+02  0.60464618483E+02  0.25500000000E-02 0. -1.
         -2    1    1    2  502    0 -0.15587542657E+02 -0.16595130021E+02  0.95674584654E+02  0.98346306396E+02  0.25500000000E-02 0. -1.
<mgrwt>
<rscale>  0 0.47025486E+02</rscale>
<asrwt>0</asrwt>
<pdfrwt beam="1">  1        2 0.23884602E-01 0.47025486E+02</pdfrwt>
<pdfrwt beam="2">  1       -2 0.54785025E-03 0.47025486E+02</pdfrwt>
<totfact> 0.79132762E+05</totfact>
</mgrwt>
</event>
<event>
 4    1  0.4696545E-002  0.4946602E+02  0.7818608E-02  0.1448243E+00
          2   -1    0    0    0  501  0.00000000000E+00  0.00000000000E+00  0.10621725066E+04  0.10621725066E+04  0.25500000000E-02 0. -1.
         -2   -1    0    0  501    0 -0.00000000000E+00 -0.00000000000E+00 -0.57591277296E+00  0.57591841832E+00  0.25500000000E-02 0. -1.
          2    1    1    2    0  502 -0.20658440259E+02 -0.12704061872E+02  0.63507490493E+03  0.63553780314E+03  0.25500000000E-02 0. -1.
         -2    1    1    2  502    0  0.20658440259E+02  0.12704061872E+02  0.42652168888E+03  0.42721062187E+03  0.25500000000E-02 0. -1.
<mgrwt>
<rscale>  0 0.49466017E+02</rscale>
<asrwt>0</asrwt>
<pdfrwt beam="1">  1        2 0.16341015E+00 0.49466017E+02</pdfrwt>
<pdfrwt beam="2">  1       -2 0.88602943E-04 0.49466017E+02</pdfrwt>
<totfact> 0.11904226E+06</totfact>
</mgrwt>
</event>
<event>
 4    1  0.4696545E-002  0.1080411E+03  0.7818608E-02  0.1264241E+00
         -2   -1    0    0  501    0 -0.00000000000E+00  0.00000000000E+00  0.15069387570E+02  0.15069387786E+02  0.25500000000E-02 0.  1.
          2   -1    0    0    0  501  0.00000000000E+00 -0.00000000000E+00 -0.19365200471E+03  0.19365200472E+03  0.25500000000E-02 0.  1.
          2    1    1    2    0  502 -0.25834008041E+02 -0.32722466765E+02 -0.15565498776E+03  0.16114164894E+03  0.25500000000E-02 0.  1.
         -2    1    1    2  502    0  0.25834008041E+02  0.32722466765E+02 -0.22927629377E+02  0.47579743568E+02  0.25500000000E-02 0.  1.
<mgrwt>
<rscale>  0 0.10804105E+03</rscale>
<asrwt>0</asrwt>
<pdfrwt beam="2">  1        2 0.29792614E-01 0.10804105E+03</pdfrwt>
<pdfrwt beam="1">  1       -2 0.23183675E-02 0.10804105E+03</pdfrwt>
<totfact> 0.96297501E+04</totfact>
</mgrwt>
</event>
<event>
 4    1  0.4696545E-002  0.4263328E+02  0.7818608E-02  0.1489682E+00
          2   -1    0    0    0  501  0.00000000000E+00  0.00000000000E+00  0.79852079430E+01  0.79852083501E+01  0.25500000000E-02 0. -1.
         -2   -1    0    0  501    0 -0.00000000000E+00 -0.00000000000E+00 -0.56905098631E+02  0.56905098688E+02  0.25500000000E-02 0. -1.
          2    1    1    2    0  502 -0.50807570160E+01 -0.20005920430E+02 -0.16356062090E+02  0.26335749804E+02  0.25500000000E-02 0. -1.
         -2    1    1    2  502    0  0.50807570160E+01  0.20005920430E+02 -0.32563828598E+02  0.38554557235E+02  0.25500000000E-02 0. -1.
<mgrwt>
<rscale>  0 0.42633276E+02</rscale>
<asrwt>0</asrwt>
<pdfrwt beam="1">  1        2 0.12284936E-02 0.42633276E+02</pdfrwt>
<pdfrwt beam="2">  1       -2 0.87546304E-02 0.42633276E+02</pdfrwt>
<totfact> 0.58391136E+05</totfact>
</mgrwt>
</event>
<event>
 4    1  0.4696545E-002  0.6234487E+02  0.7818608E-02  0.1388247E+00
         -2   -1    0    0  501    0 -0.00000000000E+00  0.00000000000E+00  0.93745781094E+00  0.93746127909E+00  0.25500000000E-02 0. -1.
          2   -1    0    0    0  501  0.00000000000E+00 -0.00000000000E+00 -0.10365468998E+04  0.10365468998E+04  0.25500000000E-02 0. -1.
          2    1    1    2    0  502  0.29689472850E+02  0.36842038535E+01 -0.37208131816E+03  0.37328212586E+03  0.25500000000E-02 0.  1.
         -2    1    1    2  502    0 -0.29689472850E+02 -0.36842038535E+01 -0.66352812387E+03  0.66420223526E+03  0.25500000000E-02 0.  1.
<mgrwt>
<rscale>  0 0.62344873E+02</rscale>
<asrwt>0</asrwt>
<pdfrwt beam="2">  1        2 0.15946784E+00 0.62344873E+02</pdfrwt>
<pdfrwt beam="1">  1       -2 0.14422537E-03 0.62344873E+02</pdfrwt>
<totfact> 0.66780142E+05</totfact>
</mgrwt>
</event>
<event>
 4    1  0.4696545E-002  0.6801304E+02  0.7818608E-02  0.1366983E+00
          2   -1    0    0    0  501  0.00000000000E+00  0.00000000000E+00  0.16301270686E+04  0.16301270686E+04  0.25500000000E-02 0. -1.
         -2   -1    0    0  501    0 -0.00000000000E+00 -0.00000000000E+00 -0.70941690203E+00  0.70942148501E+00  0.25500000000E-02 0. -1.
          2    1    1    2    0  502 -0.25080678861E+02  0.18807615946E+02  0.49870755562E+03  0.49969189799E+03  0.25500000000E-02 0.  1.
         -2    1    1    2  502    0  0.25080678861E+02 -0.18807615946E+02  0.11307100961E+04  0.11311445921E+04  0.25500000000E-02 0.  1.
<mgrwt>
<rscale>  0 0.68013041E+02</rscale>
<asrwt>0</asrwt>
<pdfrwt beam="1">  1        2 0.25078866E+00 0.68013041E+02</pdfrwt>
<pdfrwt beam="2">  1       -2 0.10914147E-03 0.68013041E+02</pdfrwt>
<totfact> 0.48719491E+05</totfact>
</mgrwt>
</event>
<event>
 4    1  0.4696545E-002  0.4479551E+02  0.7818608E-02  0.1475622E+00
          2   -1    0    0    0  501  0.00000000000E+00  0.00000000000E+00  0.31851390620E+03  0.31851390622E+03  0.25500000000E-02 0.  1.
         -2   -1    0    0  501    0 -0.00000000000E+00 -0.00000000000E+00 -0.15749990266E+01  0.15750010909E+01  0.25500000000E-02 0.  1.
          2    1    1    2    0  502 -0.12854519347E+02  0.16054732572E+02  0.22184628700E+03  0.22279759461E+03  0.25500000000E-02 0. -1.
         -2    1    1    2  502    0  0.12854519347E+02 -0.16054732572E+02  0.95092620182E+02  0.97291312692E+02  0.25500000000E-02 0. -1.
<mgrwt>
<rscale>  0 0.44795510E+02</rscale>
<asrwt>0</asrwt>
<pdfrwt beam="1">  1        2 0.49002126E-01 0.44795510E+02</pdfrwt>
<pdfrwt beam="2">  1       -2 0.24230777E-03 0.44795510E+02</pdfrwt>
<totfact> 0.11332912E+06</totfact>
</mgrwt>
</event>
<event>
 4    1  0.4696545E-002  0.4084825E+02  0.7818608E-02  0.1502060E+00
          2   -1    0    0    0  501  0.00000000000E+00  0.00000000000E+00  0.29610219713E+03  0.29610219714E+03  0.25500000000E-02 0.  1.
         -2   -1    0    0  501    0 -0.00000000000E+00 -0.00000000000E+00 -0.14087854758E+01  0.14087877837E+01  0.25500000000E-02 0.  1.
          2    1    1    2    0  502 -0.78401132394E+01 -0.18687798746E+02  0.16583489572E+03  0.16706859023E+03  0.25500000000E-02 0.  1.
         -2    1    1    2  502    0  0.78401132394E+01  0.18687798746E+02  0.12885851594E+03  0.13044239470E+03  0.25500000000E-02 0.  1.
<mgrwt>
<rscale>  0 0.40848247E+02</rscale>
<asrwt>0</asrwt>
<pdfrwt beam="1">  1        2 0.45554247E-01 0.40848247E+02</pdfrwt>
<pdfrwt beam="2">  1       -2 0.21673611E-03 0.40848247E+02</pdfrwt>
<totfact> 0.13842369E+06</totfact>
</mgrwt>
</event>
<event>
 4    1  0.4696545E-002  0.9285959E+02  0.7818608E-02  0.1296071E+00
         -2   -1    0    0  501    0 -0.00000000000E+00  0.00000000000E+00  0.54506474486E+01  0.54506480451E+01  0.25500000000E-02 0. -1.
          2   -1    0    0    0  501  0.00000000000E+00 -0.00000000000E+00 -0.39549904185E+03  0.39549904186E+03  0.25500000000E-02 0. -1.
          2    1    1    2    0  502 -0.21835634940E+01 -0.37622472762E+02 -0.31212413869E+03  0.31439099282E+03  0.25500000000E-02 0.  1.
         -2    1    1    2  502    0  0.21835634940E+01  0.37622472762E+02 -0.77924255713E+02  0.86558697086E+02  0.25500000000E-02 0.  1.
<mgrwt>
<rscale>  0 0.92859592E+02</rscale>
<asrwt>0</asrwt>
<pdfrwt beam="2">  1        2 0.60845984E-01 0.92859592E+02</pdfrwt>
<pdfrwt beam="1">  1       -2 0.83856151E-03 0.92859592E+02</pdfrwt>
<totfact> 0.18938009E+05</totfact>
</mgrwt>
</event>
<event>
 4    1  0.4696545E-002  0.6200358E+02  0.7818608E-02  0.1389611E+00
          2   -1    0    0    0  501  0.00000000000E+00  0.00000000000E+00  0.29445893072E+02  0.29445893183E+02  0.25500000000E-02 0. -1.
         -2   -1    0    0  501    0 -0.00000000000E+00 -0.00000000000E+00 -0.32639894638E+02  0.32639894738E+02  0.25500000000E-02 0. -1.
          2    1    1    2    0  502  0.15979084387E+02 -0.15902116759E+02  0.19712720416E+02  0.29946615969E+02  0.25500000000E-02 0. -1.
         -2    1    1    2  502    0 -0.15979084387E+02  0.15902116759E+02 -0.22906721982E+02  0.32139171952E+02  0.25500000000E-02 0. -1.
<mgrwt>
<rscale>  0 0.62003576E+02</rscale>
<asrwt>0</asrwt>
<pdfrwt beam="1">  1        2 0.45301374E-02 0.62003576E+02</pdfrwt>
<pdfrwt beam="2">  1       -2 0.50215223E-02 0.62003576E+02</pdfrwt>
<totfact> 0.26339694E+05</totfact>
</mgrwt>
</event>
<event>
 4    1  0.4696545E-002  0.5561297E+02  0.7818608E-02  0.1417222E+00
          2   -1    0    0    0  501  0.00000000000E+00  0.00000000000E+00  0.88832096317E+03  0.88832096317E+03  0.25500000000E-02 0. -1.
         -2   -1    0    0  501    0 -0.00000000000E+00 -0.00000000000E+00 -0.87040486865E+00  0.87040860397E+00  0.25500000000E-02 0. -1.
          2    1    1    2    0  502 -0.14867481830E+01  0.24562210493E+02  0.23667773466E+03  0.23795348851E+03  0.25500000000E-02 0.  1.
         -2    1    1    2  502    0  0.14867481830E+01 -0.24562210493E+02  0.65077282364E+03  0.65123788327E+03  0.25500000000E-02 0.  1.
<mgrwt>
<rscale>  0 0.55612968E+02</rscale>
<asrwt>0</asrwt>
<pdfrwt beam="1">  1        2 0.13666489E+00 0.55612968E+02</pdfrwt>
<pdfrwt beam="2">  1       -2 0.13390861E-03 0.55612968E+02</pdfrwt>
<totfact> 0.88062290E+05</totfact>
</mgrwt>
</event>
<event>
 4    1  0.4696545E-002  0.4269434E+02  0.7818608E-02  0.1489271E+00
          2   -1    0    0    0  501  0.00000000000E+00  0.00000000000E+00  0.89924222383E+03  0.89924222383E+03  0.25500000000E-02 0.  1.
         -2   -1    0    0  501    0 -0.00000000000E+00 -0.00000000000E+00 -0.50675854238E+00  0.50676495812E+00  0.25500000000E-02 0.  1.
          2    1    1    2    0  502 -0.38302286509E+01  0.20045986011E+02  0.58129518002E+03  0.58165333192E+03  0.25500000000E-02 0. -1.
         -2    1    1    2  502    0  0.38302286509E+01 -0.20045986011E+02  0.31744028527E+03  0.31809565688E+03  0.25500000000E-02 0. -1.
<mgrwt>
<rscale>  0 0.42694335E+02</rscale>
<asrwt>0</asrwt>
<pdfrwt beam="1">  1        2 0.13834330E+00 0.42694335E+02</pdfrwt>
<pdfrwt beam="2">  1       -2 0.77964282E-04 0.42694335E+02</pdfrwt>
<totfact> 0.16893692E+06</totfact>
</mgrwt>
</event>
<event>
 4    1  0.4696545E-002  0.4203520E+02  0.7818608E-02  0.1493747E+00
          2   -1    0    0    0  501  0.00000000000E+00  0.00000000000E+00  0.12993895293E+02  0.12993895544E+02  0.25500000000E-02 0. -1.
         -2   -1    0    0  501    0 -0.00000000000E+00 -0.00000000000E+00 -0.33995930701E+02  0.33995930796E+02  0.25500000000E-02 0. -1.
          2    1    1    2    0  502  0.13102334741E+02  0.16013982994E+02 -0.63753806448E+01  0.21650965611E+02  0.25500000000E-02 0.  1.
         -2    1    1    2  502    0 -0.13102334741E+02 -0.16013982994E+02 -0.14626654763E+02  0.25338860729E+02  0.25500000000E-02 0.  1.
<mgrwt>
<rscale>  0 0.42035203E+02</rscale>
<asrwt>0</asrwt>
<pdfrwt beam="1">  1        2 0.19990608E-02 0.42035203E+02</pdfrwt>
<pdfrwt beam="2">  1       -2 0.52301432E-02 0.42035203E+02</pdfrwt>
<totfact> 0.65421755E+05</totfact>
</mgrwt>
</event>
<event>
 4    1  0.4696545E-002  0.1194849E+03  0.7818608E-02  0.1243949E+00
          2   -1    0    0    0  501  0.00000000000E+00  0.00000000000E+00  0.19480616581E+04  0.19480616581E+04  0.25500000000E-02 0. -1.
         -2   -1    0    0  501    0 -0.00000000000E+00 -0.00000000000E+00 -0.18321576639E+01  0.18321594385E+01  0.25500000000E-02 0. -1.
          2    1    1    2    0  502  0.35231986400E+02  0.47759440320E+02  0.86135426144E+03  0.86339644470E+03  0.25500000000E-02 0.  1.
         -2    1    1    2  502    0 -0.35231986400E+02 -0.47759440320E+02  0.10848752390E+04  0.10864973729E+04  0.25500000000E-02 0.  1.
<mgrwt>
<rscale>  0 0.11948486E+03</rscale>
<asrwt>0</asrwt>
<pdfrwt beam="1">  1        2 0.29970242E+00 0.11948486E+03</pdfrwt>
<pdfrwt beam="2">  1       -2 0.28186996E-03 0.11948486E+03</pdfrwt>
<totfact> 0.97755244E+04</totfact>
</mgrwt>
</event>
<event>
 4    1  0.4696545E-002  0.4672503E+02  0.7818608E-02  0.1463851E+00
          2   -1    0    0    0  501  0.00000000000E+00  0.00000000000E+00  0.78461954955E+00  0.78462369327E+00  0.25500000000E-02 0. -1.
         -2   -1    0    0  501    0 -0.00000000000E+00 -0.00000000000E+00 -0.69563106168E+03  0.69563106168E+03  0.25500000000E-02 0. -1.
          2    1    1    2    0  502  0.23018592916E+02  0.51989683297E+00 -0.28840184278E+03  0.28931945811E+03  0.25500000000E-02 0.  1.
         -2    1    1    2  502    0 -0.23018592916E+02 -0.51989683297E+00 -0.40644459934E+03  0.40709622726E+03  0.25500000000E-02 0.  1.
<mgrwt>
<rscale>  0 0.46725033E+02</rscale>
<asrwt>0</asrwt>
<pdfrwt beam="1">  1        2 0.12071158E-03 0.46725033E+02</pdfrwt>
<pdfrwt beam="2">  1       -2 0.10701967E+00 0.46725033E+02</pdfrwt>
<totfact> 0.14732832E+05</totfact>
</mgrwt>
</event>
<event>
 4    1  0.4696545E-002  0.5528768E+02  0.7818608E-02  0.1418743E+00
         -2   -1    0    0  501    0 -0.00000000000E+00  0.00000000000E+00  0.33586447608E+03  0.33586447609E+03  0.25500000000E-02 0.  1.
          2   -1    0    0    0  501  0.00000000000E+00 -0.00000000000E+00 -0.22752680048E+01  0.22752694338E+01  0.25500000000E-02 0.  1.
          2    1    1    2    0  502 -0.21447342742E+02 -0.17403371441E+02  0.17381093057E+03  0.17599177663E+03  0.25500000000E-02 0. -1.
         -2    1    1    2  502    0  0.21447342742E+02  0.17403371441E+02  0.15977827751E+03  0.16214796890E+03  0.25500000000E-02 0. -1.
<mgrwt>
<rscale>  0 0.55287682E+02</rscale>
<asrwt>0</asrwt>
<pdfrwt beam="2">  1        2 0.35004139E-03 0.55287682E+02</pdfrwt>
<pdfrwt beam="1">  1       -2 0.51671451E-01 0.55287682E+02</pdfrwt>
<totfact> 0.16976601E+05</totfact>
</mgrwt>
</event>
<event>
 4    1  0.4696545E-002  0.5382258E+02  0.7818608E-02  0.1425750E+00
         -2   -1    0    0  501    0 -0.00000000000E+00  0.00000000000E+00  0.69514961045E+00  0.69515428748E+00  0.25500000000E-02 0. -1.
          2   -1    0    0    0  501  0.00000000000E+00 -0.00000000000E+00 -0.10418116692E+04  0.10418116692E+04  0.25500000000E-02 0. -1.
          2    1    1    2    0  502  0.19825963062E+02  0.73011355431E+01 -0.19769889323E+03  0.19882461563E+03  0.25500000000E-02 0.  1.
         -2    1    1    2  502    0 -0.19825963062E+02 -0.73011355431E+01 -0.84341762631E+03  0.84368220781E+03  0.25500000000E-02 0.  1.
<mgrwt>
<rscale>  0 0.53822576E+02</rscale>
<asrwt>0</asrwt>
<pdfrwt beam="2">  1        2 0.16027747E+00 0.53822576E+02</pdfrwt>
<pdfrwt beam="1">  1       -2 0.10694729E-03 0.53822576E+02</pdfrwt>
<totfact> 0.96572901E+05</totfact>
</mgrwt>
</event>
<event>
 4    1  0.4696545E-002  0.4925322E+02  0.7818608E-02  0.1449412E+00
          2   -1    0    0    0  501  0.00000000000E+00  0.00000000000E+00  0.80791583844E+01  0.80791587869E+01  0.25500000000E-02 0.  1.
         -2   -1    0    0  501    0 -0.00000000000E+00 -0.00000000000E+00 -0.75065980948E+02  0.75065980991E+02  0.25500000000E-02 0.  1.
          2    1    1    2    0  502  0.24038785897E+02  0.43292240722E+01 -0.28191396603E+02  0.37300941776E+02  0.25500000000E-02 0.  1.
         -2    1    1    2  502    0 -0.24038785897E+02 -0.43292240722E+01 -0.38795425960E+02  0.45844198002E+02  0.25500000000E-02 0.  1.
<mgrwt>
<rscale>  0 0.49253222E+02</rscale>
<asrwt>0</asrwt>
<pdfrwt beam="1">  1        2 0.12429475E-02 0.49253222E+02</pdfrwt>
<pdfrwt beam="2">  1       -2 0.11548612E-01 0.49253222E+02</pdfrwt>
<totfact> 0.39118514E+05</totfact>
</mgrwt>
</event>
<event>
 4    1  0.4696545E-002  0.4400471E+02  0.7818608E-02  0.1480652E+00
          2   -1    0    0    0  501  0.00000000000E+00  0.00000000000E+00  0.24133614975E+04  0.24133614975E+04  0.25500000000E-02 0. -1.
         -2   -1    0    0  501    0 -0.00000000000E+00 -0.00000000000E+00 -0.20058500083E+00  0.20060120901E+00  0.25500000000E-02 0. -1.
          2    1    1    2    0  502 -0.29441106322E+01  0.21600855307E+02  0.10435160134E+04  0.10437437113E+04  0.25500000000E-02 0. -1.
         -2    1    1    2  502    0  0.29441106322E+01 -0.21600855307E+02  0.13696448991E+04  0.13698183874E+04  0.25500000000E-02 0. -1.
<mgrwt>
<rscale>  0 0.44004712E+02</rscale>
<asrwt>0</asrwt>
<pdfrwt beam="1">  1        2 0.37128231E+00 0.44004712E+02</pdfrwt>
<pdfrwt beam="2">  1       -2 0.30860817E-04 0.44004712E+02</pdfrwt>
<totfact> 0.10181069E+06</totfact>
</mgrwt>
</event>
<event>
 4    1  0.4696545E-002  0.6378663E+02  0.7818608E-02  0.1382595E+00
          2   -1    0    0    0  501  0.00000000000E+00  0.00000000000E+00  0.75695352469E+03  0.75695352469E+03  0.25500000000E-02 0. -1.
         -2   -1    0    0  501    0 -0.00000000000E+00 -0.00000000000E+00 -0.13437849706E+01  0.13437873900E+01  0.25500000000E-02 0. -1.
          2    1    1    2    0  502  0.28505976277E+02  0.68945706120E+01  0.52678889836E+03  0.52760465239E+03  0.25500000000E-02 0.  1.
         -2    1    1    2  502    0 -0.28505976277E+02 -0.68945706120E+01  0.22882084136E+03  0.23069265969E+03  0.25500000000E-02 0.  1.
<mgrwt>
<rscale>  0 0.63786635E+02</rscale>
<asrwt>0</asrwt>
<pdfrwt beam="1">  1        2 0.11645461E+00 0.63786635E+02</pdfrwt>
<pdfrwt beam="2">  1       -2 0.20673595E-03 0.63786635E+02</pdfrwt>
<totfact> 0.60798737E+05</totfact>
</mgrwt>
</event>
<event>
 4    1  0.4696545E-002  0.4568847E+02  0.7818608E-02  0.1470089E+00
          2   -1    0    0    0  501  0.00000000000E+00  0.00000000000E+00  0.34281741445E+03  0.34281741446E+03  0.25500000000E-02 0.  1.
         -2   -1    0    0  501    0 -0.00000000000E+00 -0.00000000000E+00 -0.15222645748E+01  0.15222667106E+01  0.25500000000E-02 0.  1.
          2    1    1    2    0  502 -0.45418915553E+01  0.21396694188E+02  0.22030505189E+03  0.22138826345E+03  0.25500000000E-02 0.  1.
         -2    1    1    2  502    0  0.45418915553E+01 -0.21396694188E+02  0.12099009798E+03  0.12295141771E+03  0.25500000000E-02 0.  1.
<mgrwt>
<rscale>  0 0.45688474E+02</rscale>
<asrwt>0</asrwt>
<pdfrwt beam="1">  1        2 0.52741183E-01 0.45688474E+02</pdfrwt>
<pdfrwt beam="2">  1       -2 0.23419453E-03 0.45688474E+02</pdfrwt>
<totfact> 0.11073030E+06</totfact>
</mgrwt>
</event>
<event>
 4    1  0.4696545E-002  0.4323541E+02  0.7818608E-02  0.1485668E+00
          2   -1    0    0    0  501  0.00000000000E+00  0.00000000000E+00  0.12792044018E+04  0.12792044018E+04  0.25500000000E-02 0. -1.
         -2   -1    0    0  501    0 -0.00000000000E+00 -0.00000000000E+00 -0.36532041439E+00  0.36532931400E+00  0.25500000000E-02 0. -1.
          2    1    1    2    0  502  0.55113769907E+01  0.20893704586E+02  0.65820746293E+03  0.65856205966E+03  0.25500000000E-02 0. -1.
         -2    1    1    2  502    0 -0.55113769907E+01 -0.20893704586E+02  0.62063161844E+03  0.62100767143E+03  0.25500000000E-02 0. -1.
<mgrwt>
<rscale>  0 0.43235410E+02</rscale>
<asrwt>0</asrwt>
<pdfrwt beam="1">  1        2 0.19680010E+00 0.43235410E+02</pdfrwt>
<pdfrwt beam="2">  1       -2 0.56203989E-04 0.43235410E+02</pdfrwt>
<totfact> 0.16314306E+06</totfact>
</mgrwt>
</event>
<event>
 4    1  0.4696545E-002  0.4572308E+02  0.7818608E-02  0.1469877E+00
          2   -1    0    0    0  501  0.00000000000E+00  0.00000000000E+00  0.76363736672E+03  0.76363736672E+03  0.25500000000E-02 0. -1.
         -2   -1    0    0  501    0 -0.00000000000E+00 -0.00000000000E+00 -0.68441924742E+00  0.68442399778E+00  0.25500000000E-02 0. -1.
          2    1    1    2    0  502 -0.22468811144E+02 -0.54993080432E+00  0.31154702204E+03  0.31235668210E+03  0.25500000000E-02 0. -1.
         -2    1    1    2  502    0  0.22468811144E+02  0.54993080432E+00  0.45140592543E+03  0.45196510863E+03  0.25500000000E-02 0. -1.
<mgrwt>
<rscale>  0 0.45723076E+02</rscale>
<asrwt>0</asrwt>
<pdfrwt beam="1">  1        2 0.11748262E+00 0.45723076E+02</pdfrwt>
<pdfrwt beam="2">  1       -2 0.10529568E-03 0.45723076E+02</pdfrwt>
<totfact> 0.13952765E+06</totfact>
</mgrwt>
</event>
<event>
 4    1  0.4696545E-002  0.4864217E+02  0.7818608E-02  0.1452806E+00
         -2   -1    0    0  501    0 -0.00000000000E+00  0.00000000000E+00  0.75974643048E+00  0.75975070986E+00  0.25500000000E-02 0. -1.
          2   -1    0    0    0  501  0.00000000000E+00 -0.00000000000E+00 -0.77856691508E+03  0.77856691509E+03  0.25500000000E-02 0. -1.
          2    1    1    2    0  502 -0.13345244832E+02  0.18364350359E+02 -0.24907399115E+03  0.25010637336E+03  0.25500000000E-02 0. -1.
         -2    1    1    2  502    0  0.13345244832E+02 -0.18364350359E+02 -0.52873317750E+03  0.52922029243E+03  0.25500000000E-02 0. -1.
<mgrwt>
<rscale>  0 0.48642167E+02</rscale>
<asrwt>0</asrwt>
<pdfrwt beam="2">  1        2 0.11977889E+00 0.48642167E+02</pdfrwt>
<pdfrwt beam="1">  1       -2 0.11688502E-03 0.48642167E+02</pdfrwt>
<totfact> 0.12032499E+06</totfact>
</mgrwt>
</event>
<event>
 4    1  0.4696545E-002  0.5226465E+02  0.7818608E-02  0.1433496E+00
         -2   -1    0    0  501    0 -0.00000000000E+00  0.00000000000E+00  0.23146874777E+02  0.23146874917E+02  0.25500000000E-02 0. -1.
          2   -1    0    0    0  501  0.00000000000E+00 -0.00000000000E+00 -0.29502832005E+02  0.29502832116E+02  0.25500000000E-02 0. -1.
          2    1    1    2    0  502 -0.13259445730E+02 -0.22056206221E+02  0.13952061574E+01  0.25772771303E+02  0.25500000000E-02 0. -1.
         -2    1    1    2  502    0  0.13259445730E+02  0.22056206221E+02 -0.77511633857E+01  0.26876935730E+02  0.25500000000E-02 0. -1.
<mgrwt>
<rscale>  0 0.52264648E+02</rscale>
<asrwt>0</asrwt>
<pdfrwt beam="2">  1        2 0.45388973E-02 0.52264648E+02</pdfrwt>
<pdfrwt beam="1">  1       -2 0.35610576E-02 0.52264648E+02</pdfrwt>
<totfact> 0.41672052E+05</totfact>
</mgrwt>
</event>
<event>
 4    1  0.4696545E-002  0.4277540E+02  0.7818608E-02  0.1488727E+00
          2   -1    0    0    0  501  0.00000000000E+00  0.00000000000E+00  0.29128353935E+04  0.29128353935E+04  0.25500000000E-02 0.  1.
         -2   -1    0    0  501    0 -0.00000000000E+00 -0.00000000000E+00 -0.15703031224E+00  0.15705101548E+00  0.25500000000E-02 0.  1.
          2    1    1    2    0  502  0.16506828903E+02 -0.13550355656E+02  0.15353484112E+04  0.15354969330E+04  0.25500000000E-02 0. -1.
         -2    1    1    2  502    0 -0.16506828903E+02  0.13550355656E+02  0.13773299519E+04  0.13774955114E+04  0.25500000000E-02 0. -1.
<mgrwt>
<rscale>  0 0.42775395E+02</rscale>
<asrwt>0</asrwt>
<pdfrwt beam="1">  1        2 0.44811976E+00 0.42775395E+02</pdfrwt>
<pdfrwt beam="2">  1       -2 0.24160575E-04 0.42775395E+02</pdfrwt>
<totfact> 0.77334380E+05</totfact>
</mgrwt>
</event>
<event>
 4    1  0.4696545E-002  0.4801746E+02  0.7818608E-02  0.1456338E+00
         -2   -1    0    0  501    0 -0.00000000000E+00  0.00000000000E+00  0.12960412955E+01  0.12960438041E+01  0.25500000000E-02 0.  1.
          2   -1    0    0    0  501  0.00000000000E+00 -0.00000000000E+00 -0.44475313967E+03  0.44475313967E+03  0.25500000000E-02 0.  1.
          2    1    1    2    0  502 -0.10991845892E+02 -0.19289207035E+02 -0.30662535446E+03  0.30742804392E+03  0.25500000000E-02 0.  1.
         -2    1    1    2  502    0  0.10991845892E+02  0.19289207035E+02 -0.13683174391E+03  0.13862113956E+03  0.25500000000E-02 0.  1.
<mgrwt>
<rscale>  0 0.48017455E+02</rscale>
<asrwt>0</asrwt>
<pdfrwt beam="2">  1        2 0.68423438E-01 0.48017455E+02</pdfrwt>
<pdfrwt beam="1">  1       -2 0.19939152E-03 0.48017455E+02</pdfrwt>
<totfact> 0.10694431E+06</totfact>
</mgrwt>
</event>
<event>
 4    1  0.4696545E-002  0.5202711E+02  0.7818608E-02  0.1434705E+00
          2   -1    0    0    0  501  0.00000000000E+00  0.00000000000E+00  0.12917551683E+04  0.12917551683E+04  0.25500000000E-02 0. -1.
         -2   -1    0    0  501    0 -0.00000000000E+00 -0.00000000000E+00 -0.52386174146E+00  0.52386794774E+00  0.25500000000E-02 0. -1.
          2    1    1    2    0  502 -0.23445461179E+02 -0.31817340578E+01  0.37706944041E+03  0.37781103210E+03  0.25500000000E-02 0. -1.
         -2    1    1    2  502    0  0.23445461179E+02  0.31817340578E+01  0.91416186618E+03  0.91446800418E+03  0.25500000000E-02 0. -1.
<mgrwt>
<rscale>  0 0.52027113E+02</rscale>
<asrwt>0</asrwt>
<pdfrwt beam="1">  1        2 0.19872762E+00 0.52027113E+02</pdfrwt>
<pdfrwt beam="2">  1       -2 0.80596193E-04 0.52027113E+02</pdfrwt>
<totfact> 0.10333976E+06</totfact>
</mgrwt>
</event>
<event>
 4    1  0.4696545E-002  0.1342246E+03  0.7818608E-02  0.1221319E+00
          2   -1    0    0    0  501  0.00000000000E+00  0.00000000000E+00  0.70328212021E+03  0.70328212022E+03  0.25500000000E-02 0.  1.
         -2   -1    0    0  501    0 -0.00000000000E+00 -0.00000000000E+00 -0.64043396766E+01  0.64043401843E+01  0.25500000000E-02 0.  1.
          2    1    1    2    0  502 -0.51543880502E+02  0.42644205938E+02  0.32008499619E+03  0.32700107753E+03  0.25500000000E-02 0.  1.
         -2    1    1    2  502    0  0.51543880502E+02 -0.42644205938E+02  0.37679278435E+03  0.38268538287E+03  0.25500000000E-02 0.  1.
<mgrwt>
<rscale>  0 0.13422455E+03</rscale>
<asrwt>0</asrwt>
<pdfrwt beam="1">  1        2 0.10819730E+00 0.13422455E+03</pdfrwt>
<pdfrwt beam="2">  1       -2 0.98528263E-03 0.13422455E+03</pdfrwt>
<totfact> 0.83906534E+04</totfact>
</mgrwt>
</event>
<event>
 4    1  0.4696545E-002  0.7122405E+02  0.7818608E-02  0.1355979E+00
         -2   -1    0    0  501    0 -0.00000000000E+00  0.00000000000E+00  0.43040574258E+01  0.43040581812E+01  0.25500000000E-02 0.  1.
          2   -1    0    0    0  501  0.00000000000E+00 -0.00000000000E+00 -0.29465595397E+03  0.29465595398E+03  0.25500000000E-02 0.  1.
          2    1    1    2    0  502  0.34013843395E+02 -0.67384283070E+01 -0.11110967208E+03  0.11639461841E+03  0.25500000000E-02 0.  1.
         -2    1    1    2  502    0 -0.34013843395E+02  0.67384283070E+01 -0.17924222447E+03  0.18256539376E+03  0.25500000000E-02 0.  1.
<mgrwt>
<rscale>  0 0.71224048E+02</rscale>
<asrwt>0</asrwt>
<pdfrwt beam="2">  1        2 0.45331669E-01 0.71224048E+02</pdfrwt>
<pdfrwt beam="1">  1       -2 0.66216297E-03 0.71224048E+02</pdfrwt>
<totfact> 0.34184593E+05</totfact>
</mgrwt>
</event>
<event>
 4    1  0.4696545E-002  0.4776814E+02  0.7818608E-02  0.1457765E+00
          2   -1    0    0    0  501  0.00000000000E+00  0.00000000000E+00  0.18048139760E+03  0.18048139762E+03  0.25500000000E-02 0. -1.
         -2   -1    0    0  501    0 -0.00000000000E+00 -0.00000000000E+00 -0.31607065468E+01  0.31607075755E+01  0.25500000000E-02 0. -1.
          2    1    1    2    0  502 -0.23506840986E+02  0.18228877126E+01  0.73993724980E+02  0.77659293299E+02  0.25500000000E-02 0. -1.
         -2    1    1    2  502    0  0.23506840986E+02 -0.18228877126E+01  0.10332696608E+03  0.10598281190E+03  0.25500000000E-02 0. -1.
<mgrwt>
<rscale>  0 0.47768141E+02</rscale>
<asrwt>0</asrwt>
<pdfrwt beam="1">  1        2 0.27766379E-01 0.47768141E+02</pdfrwt>
<pdfrwt beam="2">  1       -2 0.48626245E-03 0.47768141E+02</pdfrwt>
<totfact> 0.79785053E+05</totfact>
</mgrwt>
</event>
<event>
 4    1  0.4696545E-002  0.6299806E+02  0.7818608E-02  0.1385664E+00
          2   -1    0    0    0  501  0.00000000000E+00  0.00000000000E+00  0.25471896261E+03  0.25471896262E+03  0.25500000000E-02 0. -1.
         -2   -1    0    0  501    0 -0.00000000000E+00 -0.00000000000E+00 -0.38952289489E+01  0.38952297836E+01  0.25500000000E-02 0. -1.
          2    1    1    2    0  502  0.18912121173E+02  0.24994278588E+02  0.11255657287E+03  0.11683905337E+03  0.25500000000E-02 0. -1.
         -2    1    1    2  502    0 -0.18912121173E+02 -0.24994278588E+02  0.13826716079E+03  0.14177513903E+03  0.25500000000E-02 0. -1.
<mgrwt>
<rscale>  0 0.62998057E+02</rscale>
<asrwt>0</asrwt>
<pdfrwt beam="1">  1        2 0.39187547E-01 0.62998057E+02</pdfrwt>
<pdfrwt beam="2">  1       -2 0.59926584E-03 0.62998057E+02</pdfrwt>
<totfact> 0.44534403E+05</totfact>
</mgrwt>
</event>
<event>
 4    1  0.4696545E-002  0.4504174E+02  0.7818608E-02  0.1474081E+00
         -2   -1    0    0  501    0 -0.00000000000E+00  0.00000000000E+00  0.27117751341E+02  0.27117751461E+02  0.25500000000E-02 0.  1.
          2   -1    0    0    0  501  0.00000000000E+00 -0.00000000000E+00 -0.18703235506E+02  0.18703235680E+02  0.25500000000E-02 0.  1.
          2    1    1    2    0  502 -0.20237004563E+01  0.21505414271E+02  0.10690222682E+02  0.24101018111E+02  0.25500000000E-02 0.  1.
         -2    1    1    2  502    0  0.20237004563E+01 -0.21505414271E+02 -0.22757068476E+01  0.21719969030E+02  0.25500000000E-02 0.  1.
<mgrwt>
<rscale>  0 0.45041745E+02</rscale>
<asrwt>0</asrwt>
<pdfrwt beam="2">  1        2 0.28774209E-02 0.45041745E+02</pdfrwt>
<pdfrwt beam="1">  1       -2 0.41719618E-02 0.45041745E+02</pdfrwt>
<totfact> 0.57455915E+05</totfact>
</mgrwt>
</event>
<event>
 4    1  0.4696545E-002  0.4206706E+02  0.7818608E-02  0.1493529E+00
         -2   -1    0    0  501    0 -0.00000000000E+00  0.00000000000E+00  0.25708554673E+01  0.25708567320E+01  0.25500000000E-02 0.  1.
          2   -1    0    0    0  501  0.00000000000E+00 -0.00000000000E+00 -0.17208640066E+03  0.17208640067E+03  0.25500000000E-02 0.  1.
          2    1    1    2    0  502  0.20929272704E+02  0.11188024386E+01 -0.77420341925E+02  0.80207203698E+02  0.25500000000E-02 0. -1.
         -2    1    1    2  502    0 -0.20929272704E+02 -0.11188024386E+01 -0.92095203264E+02  0.94450053709E+02  0.25500000000E-02 0. -1.
<mgrwt>
<rscale>  0 0.42067060E+02</rscale>
<asrwt>0</asrwt>
<pdfrwt beam="2">  1        2 0.26474822E-01 0.42067060E+02</pdfrwt>
<pdfrwt beam="1">  1       -2 0.39551646E-03 0.42067060E+02</pdfrwt>
<totfact> 0.10763051E+06</totfact>
</mgrwt>
</event>
<event>
 4    1  0.4696545E-002  0.1045141E+03  0.7818608E-02  0.1271080E+00
          2   -1    0    0    0  501  0.00000000000E+00  0.00000000000E+00  0.10534190175E+02  0.10534190484E+02  0.25500000000E-02 0. -1.
         -2   -1    0    0  501    0 -0.00000000000E+00 -0.00000000000E+00 -0.25923202257E+03  0.25923202258E+03  0.25500000000E-02 0. -1.
          2    1    1    2    0  502 -0.15048112589E+02  0.46939387514E+02 -0.79564152237E+02  0.93595972779E+02  0.25500000000E-02 0. -1.
         -2    1    1    2  502    0  0.15048112589E+02 -0.46939387514E+02 -0.16913368016E+03  0.17617024029E+03  0.25500000000E-02 0. -1.
<mgrwt>
<rscale>  0 0.10451410E+03</rscale>
<asrwt>0</asrwt>
<pdfrwt beam="1">  1        2 0.16206449E-02 0.10451410E+03</pdfrwt>
<pdfrwt beam="2">  1       -2 0.39881845E-01 0.10451410E+03</pdfrwt>
<totfact> 0.38804943E+04</totfact>
</mgrwt>
</event>
<event>
 4    1  0.4696545E-002  0.9771617E+02  0.7818608E-02  0.1285173E+00
         -2   -1    0    0  501    0 -0.00000000000E+00  0.00000000000E+00  0.86317190850E+00  0.86317567512E+00  0.25500000000E-02 0.  1.
          2   -1    0    0    0  501  0.00000000000E+00 -0.00000000000E+00 -0.27655063416E+04  0.27655063416E+04  0.25500000000E-02 0.  1.
          2    1    1    2    0  502 -0.31498002239E+02 -0.33249218776E+02 -0.90064953364E+03  0.90181329395E+03  0.25500000000E-02 0. -1.
         -2    1    1    2  502    0  0.31498002239E+02  0.33249218776E+02 -0.18639936361E+04  0.18645562233E+04  0.25500000000E-02 0. -1.
<mgrwt>
<rscale>  0 0.97716173E+02</rscale>
<asrwt>0</asrwt>
<pdfrwt beam="2">  1        2 0.42545542E+00 0.97716173E+02</pdfrwt>
<pdfrwt beam="1">  1       -2 0.13279818E-03 0.97716173E+02</pdfrwt>
<totfact> 0.10232487E+05</totfact>
</mgrwt>
</event>
<event>
 4    1  0.4696545E-002  0.8333063E+02  0.7818608E-02  0.1319857E+00
          2   -1    0    0    0  501  0.00000000000E+00  0.00000000000E+00  0.15780391115E+03  0.15780391117E+03  0.25500000000E-02 0. -1.
         -2   -1    0    0  501    0 -0.00000000000E+00 -0.00000000000E+00 -0.11000984701E+02  0.11000984996E+02  0.25500000000E-02 0. -1.
          2    1    1    2    0  502 -0.36295458979E+02  0.16134573495E+02  0.98889684529E+02  0.10656854375E+03  0.25500000000E-02 0.  1.
         -2    1    1    2  502    0  0.36295458979E+02 -0.16134573495E+02  0.47913241923E+02  0.62236352419E+02  0.25500000000E-02 0.  1.
<mgrwt>
<rscale>  0 0.83330629E+02</rscale>
<asrwt>0</asrwt>
<pdfrwt beam="1">  1        2 0.24277523E-01 0.83330629E+02</pdfrwt>
<pdfrwt beam="2">  1       -2 0.16924594E-02 0.83330629E+02</pdfrwt>
<totfact> 0.18126247E+05</totfact>
</mgrwt>
</event>
<event>
 4    1  0.4696545E-002  0.5327393E+02  0.7818608E-02  0.1428442E+00
          2   -1    0    0    0  501  0.00000000000E+00  0.00000000000E+00  0.53526542946E+02  0.53526543006E+02  0.25500000000E-02 0.  1.
         -2   -1    0    0  501    0 -0.00000000000E+00 -0.00000000000E+00 -0.13255628862E+02  0.13255629107E+02  0.25500000000E-02 0.  1.
          2    1    1    2    0  502  0.13652072248E+02  0.20541671135E+02  0.75255553141E+01  0.25787076588E+02  0.25500000000E-02 0.  1.
         -2    1    1    2  502    0 -0.13652072248E+02 -0.20541671135E+02  0.32745358769E+02  0.40995095525E+02  0.25500000000E-02 0.  1.
<mgrwt>
<rscale>  0 0.53273934E+02</rscale>
<asrwt>0</asrwt>
<pdfrwt beam="1">  1        2 0.82348529E-02 0.53273934E+02</pdfrwt>
<pdfrwt beam="2">  1       -2 0.20393275E-02 0.53273934E+02</pdfrwt>
<totfact> 0.44129406E+05</totfact>
</mgrwt>
</event>
<event>
 4    1  0.4696545E-002  0.6174574E+02  0.7818608E-02  0.1390648E+00
         -2   -1    0    0  501    0 -0.00000000000E+00  0.00000000000E+00  0.70469342019E+00  0.70469803388E+00  0.25500000000E-02 0.  1.
          2   -1    0    0    0  501  0.00000000000E+00 -0.00000000000E+00 -0.13525469089E+04  0.13525469089E+04  0.25500000000E-02 0.  1.
          2    1    1    2    0  502  0.19084033679E+02  0.14652912856E+02 -0.25194786721E+03  0.25309412478E+03  0.25500000000E-02 0. -1.
         -2    1    1    2  502    0 -0.19084033679E+02 -0.14652912856E+02 -0.10998943482E+04  0.11001574821E+04  0.25500000000E-02 0. -1.
<mgrwt>
<rscale>  0 0.61745738E+02</rscale>
<asrwt>0</asrwt>
<pdfrwt beam="2">  1        2 0.20808206E+00 0.61745738E+02</pdfrwt>
<pdfrwt beam="1">  1       -2 0.10841581E-03 0.61745738E+02</pdfrwt>
<totfact> 0.66641487E+05</totfact>
</mgrwt>
</event>
<event>
 4    1  0.4696545E-002  0.5294799E+02  0.7818608E-02  0.1430060E+00
         -2   -1    0    0  501    0 -0.00000000000E+00  0.00000000000E+00  0.11162143414E+02  0.11162143706E+02  0.25500000000E-02 0. -1.
          2   -1    0    0    0  501  0.00000000000E+00 -0.00000000000E+00 -0.62790134490E+02  0.62790134541E+02  0.25500000000E-02 0. -1.
          2    1    1    2    0  502 -0.12622789142E+02  0.21724017129E+02 -0.37466560767E+02  0.45111095178E+02  0.25500000000E-02 0. -1.
         -2    1    1    2  502    0  0.12622789142E+02 -0.21724017129E+02 -0.14161430308E+02  0.28841183069E+02  0.25500000000E-02 0. -1.
<mgrwt>
<rscale>  0 0.52947993E+02</rscale>
<asrwt>0</asrwt>
<pdfrwt beam="2">  1        2 0.96600205E-02 0.52947993E+02</pdfrwt>
<pdfrwt beam="1">  1       -2 0.17172529E-02 0.52947993E+02</pdfrwt>
<totfact> 0.46340953E+05</totfact>
</mgrwt>
</event>
<event>
 4    1  0.4696545E-002  0.5437883E+02  0.7818608E-02  0.1423059E+00
          2   -1    0    0    0  501  0.00000000000E+00  0.00000000000E+00  0.78558295328E+03  0.78558295329E+03  0.25500000000E-02 0.  1.
         -2   -1    0    0  501    0 -0.00000000000E+00 -0.00000000000E+00 -0.94103746037E+00  0.94104091533E+00  0.25500000000E-02 0.  1.
          2    1    1    2    0  502 -0.23794288577E+02 -0.11729492291E+02  0.47851735765E+03  0.47925213691E+03  0.25500000000E-02 0. -1.
         -2    1    1    2  502    0  0.23794288577E+02  0.11729492291E+02  0.30612455817E+03  0.30727185729E+03  0.25500000000E-02 0. -1.
<mgrwt>
<rscale>  0 0.54378832E+02</rscale>
<asrwt>0</asrwt>
<pdfrwt beam="1">  1        2 0.12085867E+00 0.54378832E+02</pdfrwt>
<pdfrwt beam="2">  1       -2 0.14477556E-03 0.54378832E+02</pdfrwt>
<totfact> 0.91453328E+05</totfact>
</mgrwt>
</event>
<event>
 4    1  0.4696545E-002  0.1141544E+03  0.7818608E-02  0.1253064E+00
          2   -1    0    0    0  501  0.00000000000E+00  0.00000000000E+00  0.97697895542E+02  0.97697895575E+02  0.25500000000E-02 0. -1.
         -2   -1    0    0  501    0 -0.00000000000E+00 -0.00000000000E+00 -0.33345725554E+02  0.33345725651E+02  0.25500000000E-02 0. -1.
          2    1    1    2    0  502 -0.56049601026E+02  0.10698955773E+02  0.33708409489E+02  0.66274295972E+02  0.25500000000E-02 0.  1.
         -2    1    1    2  502    0  0.56049601026E+02 -0.10698955773E+02  0.30643760500E+02  0.64769325254E+02  0.25500000000E-02 0.  1.
<mgrwt>
<rscale>  0 0.11415441E+03</rscale>
<asrwt>0</asrwt>
<pdfrwt beam="1">  1        2 0.15030445E-01 0.11415441E+03</pdfrwt>
<pdfrwt beam="2">  1       -2 0.51301117E-02 0.11415441E+03</pdfrwt>
<totfact> 0.64835726E+04</totfact>
</mgrwt>
</event>
<event>
 4    1  0.4696545E-002  0.7309943E+02  0.7818608E-02  0.1349860E+00
         -2   -1    0    0  501    0 -0.00000000000E+00  0.00000000000E+00  0.84574010319E+00  0.84574394744E+00  0.25500000000E-02 0. -1.
          2   -1    0    0    0  501  0.00000000000E+00 -0.00000000000E+00 -0.15795378620E+04  0.15795378620E+04  0.25500000000E-02 0. -1.
          2    1    1    2    0  502 -0.28824337967E+02 -0.16200252691E+02 -0.45261296972E+03  0.45381911706E+03  0.25500000000E-02 0. -1.
         -2    1    1    2  502    0  0.28824337967E+02  0.16200252691E+02 -0.11260791521E+04  0.11265644888E+04  0.25500000000E-02 0. -1.
<mgrwt>
<rscale>  0 0.73099427E+02</rscale>
<asrwt>0</asrwt>
<pdfrwt beam="2">  1        2 0.24300346E+00 0.73099427E+02</pdfrwt>
<pdfrwt beam="1">  1       -2 0.13011542E-03 0.73099427E+02</pdfrwt>
<totfact> 0.41089346E+05</totfact>
</mgrwt>
</event>
<event>
 4    1  0.4696545E-002  0.4147612E+02  0.7818608E-02  0.1497621E+00
          2   -1    0    0    0  501  0.00000000000E+00  0.00000000000E+00  0.56261950279E+02  0.56261950337E+02  0.25500000000E-02 0. -1.
         -2   -1    0    0  501    0 -0.00000000000E+00 -0.00000000000E+00 -0.76440133257E+01  0.76440137510E+01  0.25500000000E-02 0. -1.
          2    1    1    2    0  502 -0.10955409084E+02  0.17593382485E+02  0.25418990569E+02  0.32797456967E+02  0.25500000000E-02 0.  1.
         -2    1    1    2  502    0  0.10955409084E+02 -0.17593382485E+02  0.23198946385E+02  0.31108507121E+02  0.25500000000E-02 0.  1.
<mgrwt>
<rscale>  0 0.41476119E+02</rscale>
<asrwt>0</asrwt>
<pdfrwt beam="1">  1        2 0.86556847E-02 0.41476119E+02</pdfrwt>
<pdfrwt beam="2">  1       -2 0.11760021E-02 0.41476119E+02</pdfrwt>
<totfact> 0.84233372E+05</totfact>
</mgrwt>
</event>
<event>
 4    1  0.4696545E-002  0.6836159E+02  0.7818608E-02  0.1365755E+00
          2   -1    0    0    0  501  0.00000000000E+00  0.00000000000E+00  0.14678016996E+04  0.14678016996E+04  0.25500000000E-02 0.  1.
         -2   -1    0    0  501    0 -0.00000000000E+00 -0.00000000000E+00 -0.79596848993E+00  0.79597257457E+00  0.25500000000E-02 0.  1.
          2    1    1    2    0  502  0.90749623962E+00 -0.33479847189E+02  0.88015838932E+03  0.88079538714E+03  0.25500000000E-02 0.  1.
         -2    1    1    2  502    0 -0.90749623962E+00  0.33479847189E+02  0.58684734180E+03  0.58780228505E+03  0.25500000000E-02 0.  1.
<mgrwt>
<rscale>  0 0.68361595E+02</rscale>
<asrwt>0</asrwt>
<pdfrwt beam="1">  1        2 0.22581554E+00 0.68361595E+02</pdfrwt>
<pdfrwt beam="2">  1       -2 0.12245706E-03 0.68361595E+02</pdfrwt>
<totfact> 0.50246079E+05</totfact>
</mgrwt>
</event>
<event>
 4    1  0.4696545E-002  0.4922409E+02  0.7818608E-02  0.1449572E+00
          2   -1    0    0    0  501  0.00000000000E+00  0.00000000000E+00  0.10377698241E+03  0.10377698244E+03  0.25500000000E-02 0. -1.
         -2   -1    0    0  501    0 -0.00000000000E+00 -0.00000000000E+00 -0.58370626285E+01  0.58370631855E+01  0.25500000000E-02 0. -1.
          2    1    1    2    0  502 -0.67259348841E+01 -0.18867571104E+02  0.17123122966E+02  0.26351940840E+02  0.25500000000E-02 0.  1.
         -2    1    1    2  502    0  0.67259348841E+01  0.18867571104E+02  0.80816796816E+02  0.83262104787E+02  0.25500000000E-02 0.  1.
<mgrwt>
<rscale>  0 0.49224091E+02</rscale>
<asrwt>0</asrwt>
<pdfrwt beam="1">  1        2 0.15965690E-01 0.49224091E+02</pdfrwt>
<pdfrwt beam="2">  1       -2 0.89800965E-03 0.49224091E+02</pdfrwt>
<totfact> 0.62896279E+05</totfact>
</mgrwt>
</event>
<event>
 4    1  0.4696545E-002  0.1617765E+03  0.7818608E-02  0.1186706E+00
         -2   -1    0    0  501    0 -0.00000000000E+00  0.00000000000E+00  0.67795410344E+02  0.67795410392E+02  0.25500000000E-02 0. -1.
          2   -1    0    0    0  501  0.00000000000E+00 -0.00000000000E+00 -0.96509650116E+02  0.96509650150E+02  0.25500000000E-02 0. -1.
          2    1    1    2    0  502  0.27826597500E+02  0.75919376897E+02 -0.12122730879E+02  0.81762044540E+02  0.25500000000E-02 0.  1.
         -2    1    1    2  502    0 -0.27826597500E+02 -0.75919376897E+02 -0.16591508893E+02  0.82543016002E+02  0.25500000000E-02 0.  1.
<mgrwt>
<rscale>  0 0.16177653E+03</rscale>
<asrwt>0</asrwt>
<pdfrwt beam="2">  1        2 0.14847638E-01 0.16177653E+03</pdfrwt>
<pdfrwt beam="1">  1       -2 0.10430063E-01 0.16177653E+03</pdfrwt>
<totfact> 0.23015257E+04</totfact>
</mgrwt>
</event>
<event>
 4    1  0.4696545E-002  0.4621338E+02  0.7818608E-02  0.1466906E+00
          2   -1    0    0    0  501  0.00000000000E+00  0.00000000000E+00  0.85334589840E+03  0.85334589840E+03  0.25500000000E-02 0.  1.
         -2   -1    0    0  501    0 -0.00000000000E+00 -0.00000000000E+00 -0.62567474088E+00  0.62567993725E+00  0.25500000000E-02 0.  1.
          2    1    1    2    0  502 -0.90087027706E+01 -0.20646753825E+02  0.52143932726E+03  0.52192568167E+03  0.25500000000E-02 0.  1.
         -2    1    1    2  502    0  0.90087027706E+01  0.20646753825E+02  0.33128089640E+03  0.33204589667E+03  0.25500000000E-02 0.  1.
<mgrwt>
<rscale>  0 0.46213383E+02</rscale>
<asrwt>0</asrwt>
<pdfrwt beam="1">  1        2 0.13128406E+00 0.46213383E+02</pdfrwt>
<pdfrwt beam="2">  1       -2 0.96257995E-04 0.46213383E+02</pdfrwt>
<totfact> 0.13843742E+06</totfact>
</mgrwt>
</event>
<event>
 4    1  0.4696545E-002  0.7684833E+02  0.7818608E-02  0.1338241E+00
          2   -1    0    0    0  501  0.00000000000E+00  0.00000000000E+00  0.39130921268E+01  0.39130929577E+01  0.25500000000E-02 0. -1.
         -2   -1    0    0  501    0 -0.00000000000E+00 -0.00000000000E+00 -0.37730173615E+03  0.37730173616E+03  0.25500000000E-02 0. -1.
          2    1    1    2    0  502  0.23534153268E+02  0.11072220369E+02 -0.32699867335E+03  0.32803137474E+03  0.25500000000E-02 0.  1.
         -2    1    1    2  502    0 -0.23534153268E+02 -0.11072220369E+02 -0.46389970674E+02  0.53183454378E+02  0.25500000000E-02 0.  1.
<mgrwt>
<rscale>  0 0.76848334E+02</rscale>
<asrwt>0</asrwt>
<pdfrwt beam="1">  1        2 0.60201453E-03 0.76848334E+02</pdfrwt>
<pdfrwt beam="2">  1       -2 0.58046393E-01 0.76848334E+02</pdfrwt>
<totfact> 0.68860780E+04</totfact>
</mgrwt>
</event>
<event>
 4    1  0.4696545E-002  0.5673877E+02  0.7818608E-02  0.1412051E+00
         -2   -1    0    0  501    0 -0.00000000000E+00  0.00000000000E+00  0.39389347823E+01  0.39389356077E+01  0.25500000000E-02 0.  1.
          2   -1    0    0    0  501  0.00000000000E+00 -0.00000000000E+00 -0.20432479246E+03  0.20432479247E+03  0.25500000000E-02 0.  1.
          2    1    1    2    0  502  0.24997731722E+02  0.11865211238E+02 -0.12316035040E+03  0.12623051036E+03  0.25500000000E-02 0.  1.
         -2    1    1    2  502    0 -0.24997731722E+02 -0.11865211238E+02 -0.77225507274E+02  0.82033217719E+02  0.25500000000E-02 0.  1.
<mgrwt>
<rscale>  0 0.56738774E+02</rscale>
<asrwt>0</asrwt>
<pdfrwt beam="2">  1        2 0.31434575E-01 0.56738774E+02</pdfrwt>
<pdfrwt beam="1">  1       -2 0.60599019E-03 0.56738774E+02</pdfrwt>
<totfact> 0.53895562E+05</totfact>
</mgrwt>
</event>
<event>
 4    1  0.4696545E-002  0.7302344E+02  0.7818608E-02  0.1350103E+00
          2   -1    0    0    0  501  0.00000000000E+00  0.00000000000E+00  0.66619057101E+03  0.66619057102E+03  0.25500000000E-02 0. -1.
         -2   -1    0    0  501    0 -0.00000000000E+00 -0.00000000000E+00 -0.20010865194E+01  0.20010881441E+01  0.25500000000E-02 0. -1.
          2    1    1    2    0  502  0.24061789752E+02  0.27150083495E+02  0.36983240329E+03  0.37160745860E+03  0.25500000000E-02 0. -1.
         -2    1    1    2  502    0 -0.24061789752E+02 -0.27150083495E+02  0.29435708120E+03  0.29658420056E+03  0.25500000000E-02 0. -1.
<mgrwt>
<rscale>  0 0.73023435E+02</rscale>
<asrwt>0</asrwt>
<pdfrwt beam="1">  1        2 0.10249083E+00 0.73023435E+02</pdfrwt>
<pdfrwt beam="2">  1       -2 0.30785966E-03 0.73023435E+02</pdfrwt>
<totfact> 0.41815172E+05</totfact>
</mgrwt>
</event>
<event>
 4    1  0.4696545E-002  0.4984881E+02  0.7818608E-02  0.1446159E+00
         -2   -1    0    0  501    0 -0.00000000000E+00  0.00000000000E+00  0.63150496397E+00  0.63151011236E+00  0.25500000000E-02 0. -1.
          2   -1    0    0    0  501  0.00000000000E+00 -0.00000000000E+00 -0.98371899976E+03  0.98371899976E+03  0.25500000000E-02 0. -1.
          2    1    1    2    0  502  0.12872455322E+02 -0.16235688665E+02 -0.76511121280E+03  0.76539170733E+03  0.25500000000E-02 0.  1.
         -2    1    1    2  502    0 -0.12872455322E+02  0.16235688665E+02 -0.21797628199E+03  0.21895880254E+03  0.25500000000E-02 0.  1.
<mgrwt>
<rscale>  0 0.49848810E+02</rscale>
<asrwt>0</asrwt>
<pdfrwt beam="2">  1        2 0.15134016E+00 0.49848810E+02</pdfrwt>
<pdfrwt beam="1">  1       -2 0.97155793E-04 0.49848810E+02</pdfrwt>
<totfact> 0.11655439E+06</totfact>
</mgrwt>
</event>
<event>
 4    1  0.4696545E-002  0.7914710E+02  0.7818608E-02  0.1331489E+00
          2   -1    0    0    0  501  0.00000000000E+00  0.00000000000E+00  0.91834668939E+03  0.91834668939E+03  0.25500000000E-02 0. -1.
         -2   -1    0    0  501    0 -0.00000000000E+00 -0.00000000000E+00 -0.17053092773E+01  0.17053111838E+01  0.25500000000E-02 0. -1.
          2    1    1    2    0  502  0.36981907497E+02 -0.77266968690E+01  0.59522583355E+03  0.59642363825E+03  0.25500000000E-02 0.  1.
         -2    1    1    2  502    0 -0.36981907497E+02  0.77266968690E+01  0.32141554656E+03  0.32362836233E+03  0.25500000000E-02 0.  1.
<mgrwt>
<rscale>  0 0.79147104E+02</rscale>
<asrwt>0</asrwt>
<pdfrwt beam="1">  1        2 0.14128458E+00 0.79147104E+02</pdfrwt>
<pdfrwt beam="2">  1       -2 0.26235454E-03 0.79147104E+02</pdfrwt>
<totfact> 0.35971592E+05</totfact>
</mgrwt>
</event>
<event>
 4    1  0.4696545E-002  0.4323643E+02  0.7818608E-02  0.1485661E+00
          2   -1    0    0    0  501  0.00000000000E+00  0.00000000000E+00  0.38608019111E+03  0.38608019112E+03  0.25500000000E-02 0.  1.
         -2   -1    0    0  501    0 -0.00000000000E+00 -0.00000000000E+00 -0.12104911579E+01  0.12104938438E+01  0.25500000000E-02 0.  1.
          2    1    1    2    0  502  0.12478215157E+02 -0.17649781827E+02  0.18924868607E+03  0.19047909554E+03  0.25500000000E-02 0. -1.
         -2    1    1    2  502    0 -0.12478215157E+02  0.17649781827E+02  0.19562101388E+03  0.19681158942E+03  0.25500000000E-02 0. -1.
<mgrwt>
<rscale>  0 0.43236428E+02</rscale>
<asrwt>0</asrwt>
<pdfrwt beam="1">  1        2 0.59396982E-01 0.43236428E+02</pdfrwt>
<pdfrwt beam="2">  1       -2 0.18622953E-03 0.43236428E+02</pdfrwt>
<totfact> 0.13195354E+06</totfact>
</mgrwt>
</event>
<event>
 4    1  0.4696545E-002  0.5710628E+02  0.7818608E-02  0.1410393E+00
         -2   -1    0    0  501    0 -0.00000000000E+00  0.00000000000E+00  0.22544078174E+01  0.22544092596E+01  0.25500000000E-02 0.  1.
          2   -1    0    0    0  501  0.00000000000E+00 -0.00000000000E+00 -0.36163893545E+03  0.36163893546E+03  0.25500000000E-02 0.  1.
          2    1    1    2    0  502 -0.27631248022E+02 -0.71474898331E+01 -0.18505940112E+03  0.18724730820E+03  0.25500000000E-02 0. -1.
         -2    1    1    2  502    0  0.27631248022E+02  0.71474898331E+01 -0.17432512651E+03  0.17664603652E+03  0.25500000000E-02 0. -1.
<mgrwt>
<rscale>  0 0.57106284E+02</rscale>
<asrwt>0</asrwt>
<pdfrwt beam="2">  1        2 0.55636713E-01 0.57106284E+02</pdfrwt>
<pdfrwt beam="1">  1       -2 0.34683237E-03 0.57106284E+02</pdfrwt>
<totfact> 0.64708945E+05</totfact>
</mgrwt>
</event>
<event>
 4    1  0.4696545E-002  0.4123694E+02  0.7818608E-02  0.1499301E+00
          2   -1    0    0    0  501  0.00000000000E+00  0.00000000000E+00  0.47404188698E+01  0.47404195556E+01  0.25500000000E-02 0. -1.
         -2   -1    0    0  501    0 -0.00000000000E+00 -0.00000000000E+00 -0.89680093809E+02  0.89680093845E+02  0.25500000000E-02 0. -1.
          2    1    1    2    0  502 -0.17184779870E+02 -0.10586433220E+02 -0.52111655488E+02  0.55883932143E+02  0.25500000000E-02 0.  1.
         -2    1    1    2  502    0  0.17184779870E+02  0.10586433220E+02 -0.32828019451E+02  0.38536581258E+02  0.25500000000E-02 0.  1.
<mgrwt>
<rscale>  0 0.41236937E+02</rscale>
<asrwt>0</asrwt>
<pdfrwt beam="1">  1        2 0.72929533E-03 0.41236937E+02</pdfrwt>
<pdfrwt beam="2">  1       -2 0.13796936E-01 0.41236937E+02</pdfrwt>
<totfact> 0.57753488E+05</totfact>
</mgrwt>
</event>
<event>
 4    1  0.4696545E-002  0.4650437E+02  0.7818608E-02  0.1465163E+00
         -2   -1    0    0  501    0 -0.00000000000E+00  0.00000000000E+00  0.10179075581E+01  0.10179107521E+01  0.25500000000E-02 0.  1.
          2   -1    0    0    0  501  0.00000000000E+00 -0.00000000000E+00 -0.53115160657E+03  0.53115160658E+03  0.25500000000E-02 0.  1.
          2    1    1    2    0  502  0.43408140703E+01 -0.22772700374E+02 -0.24451472003E+03  0.24561125151E+03  0.25500000000E-02 0.  1.
         -2    1    1    2  502    0 -0.43408140703E+01  0.22772700374E+02 -0.28561897898E+03  0.28655826582E+03  0.25500000000E-02 0.  1.
<mgrwt>
<rscale>  0 0.46504369E+02</rscale>
<asrwt>0</asrwt>
<pdfrwt beam="2">  1        2 0.81715411E-01 0.46504369E+02</pdfrwt>
<pdfrwt beam="1">  1       -2 0.15660183E-03 0.46504369E+02</pdfrwt>
<totfact> 0.12228320E+06</totfact>
</mgrwt>
</event>
<event>
 4    1  0.4696545E-002  0.8331142E+02  0.7818608E-02  0.1319908E+00
         -2   -1    0    0  501    0 -0.00000000000E+00  0.00000000000E+00  0.53007795667E+01  0.53007801800E+01  0.25500000000E-02 0.  1.
          2   -1    0    0    0  501  0.00000000000E+00 -0.00000000000E+00 -0.32734771691E+03  0.32734771692E+03  0.25500000000E-02 0.  1.
          2    1    1    2    0  502 -0.48129245482E+01 -0.40678933532E+02 -0.13081002071E+03  0.13707370791E+03  0.25500000000E-02 0.  1.
         -2    1    1    2  502    0  0.48129245482E+01  0.40678933532E+02 -0.19123691663E+03  0.19557478919E+03  0.25500000000E-02 0.  1.
<mgrwt>
<rscale>  0 0.83311420E+02</rscale>
<asrwt>0</asrwt>
<pdfrwt beam="2">  1        2 0.50361171E-01 0.83311420E+02</pdfrwt>
<pdfrwt beam="1">  1       -2 0.81550485E-03 0.83311420E+02</pdfrwt>
<totfact> 0.23567971E+05</totfact>
</mgrwt>
</event>
<event>
 4    1  0.4696545E-002  0.5431807E+02  0.7818608E-02  0.1423352E+00
         -2   -1    0    0  501    0 -0.00000000000E+00  0.00000000000E+00  0.37995783727E+00  0.37996639404E+00  0.25500000000E-02 0. -1.
          2   -1    0    0    0  501  0.00000000000E+00 -0.00000000000E+00 -0.19412807130E+04  0.19412807130E+04  0.25500000000E-02 0. -1.
          2    1    1    2    0  502 -0.14047574400E+02  0.23006741407E+02 -0.85206306779E+03  0.85248936416E+03  0.25500000000E-02 0.  1.
         -2    1    1    2  502    0  0.14047574400E+02 -0.23006741407E+02 -0.10888376874E+04  0.10891713153E+04  0.25500000000E-02 0.  1.
<mgrwt>
<rscale>  0 0.54318068E+02</rscale>
<asrwt>0</asrwt>
<pdfrwt beam="2">  1        2 0.29865063E+00 0.54318068E+02</pdfrwt>
<pdfrwt beam="1">  1       -2 0.58457265E-04 0.54318068E+02</pdfrwt>
<totfact> 0.76779569E+05</totfact>
</mgrwt>
</event>
<event>
 4    1  0.4696545E-002  0.6382268E+02  0.7818608E-02  0.1382456E+00
          2   -1    0    0    0  501  0.00000000000E+00  0.00000000000E+00  0.20127026470E+04  0.20127026470E+04  0.25500000000E-02 0. -1.
         -2   -1    0    0  501    0 -0.00000000000E+00 -0.00000000000E+00 -0.50595014655E+00  0.50595657253E+00  0.25500000000E-02 0. -1.
          2    1    1    2    0  502 -0.26532779426E+02  0.44507437667E+01  0.46474224230E+03  0.46552029954E+03  0.25500000000E-02 0. -1.
         -2    1    1    2  502    0  0.26532779426E+02 -0.44507437667E+01  0.15474544546E+04  0.15476883041E+04  0.25500000000E-02 0. -1.
<mgrwt>
<rscale>  0 0.63822682E+02</rscale>
<asrwt>0</asrwt>
<pdfrwt beam="1">  1        2 0.30964591E+00 0.63822682E+02</pdfrwt>
<pdfrwt beam="2">  1       -2 0.77839143E-04 0.63822682E+02</pdfrwt>
<totfact> 0.49430603E+05</totfact>
</mgrwt>
</event>
<event>
 4    1  0.4696545E-002  0.4991486E+02  0.7818608E-02  0.1445801E+00
          2   -1    0    0    0  501  0.00000000000E+00  0.00000000000E+00  0.83155236232E+03  0.83155236232E+03  0.25500000000E-02 0.  1.
         -2   -1    0    0  501    0 -0.00000000000E+00 -0.00000000000E+00 -0.74904660622E+00  0.74905094673E+00  0.25500000000E-02 0.  1.
          2    1    1    2    0  502  0.56980375783E+01 -0.23520691523E+02  0.31372498414E+03  0.31465704543E+03  0.25500000000E-02 0.  1.
         -2    1    1    2  502    0 -0.56980375783E+01  0.23520691523E+02  0.51707833157E+03  0.51764436783E+03  0.25500000000E-02 0.  1.
<mgrwt>
<rscale>  0 0.49914859E+02</rscale>
<asrwt>0</asrwt>
<pdfrwt beam="1">  1        2 0.12793092E+00 0.49914859E+02</pdfrwt>
<pdfrwt beam="2">  1       -2 0.11523847E-03 0.49914859E+02</pdfrwt>
<totfact> 0.11414830E+06</totfact>
</mgrwt>
</event>
<event>
 4    1  0.4696545E-002  0.7908508E+02  0.7818608E-02  0.1331668E+00
         -2   -1    0    0  501    0 -0.00000000000E+00  0.00000000000E+00  0.27845939034E+01  0.27845950710E+01  0.25500000000E-02 0.  1.
          2   -1    0    0    0  501  0.00000000000E+00 -0.00000000000E+00 -0.56152251541E+03  0.56152251541E+03  0.25500000000E-02 0.  1.
          2    1    1    2    0  502 -0.32140978808E+02  0.15964389970E+02 -0.39784917366E+03  0.39946447809E+03  0.25500000000E-02 0. -1.
         -2    1    1    2  502    0  0.32140978808E+02 -0.15964389970E+02 -0.16088874784E+03  0.16484263240E+03  0.25500000000E-02 0. -1.
<mgrwt>
<rscale>  0 0.79085081E+02</rscale>
<asrwt>0</asrwt>
<pdfrwt beam="2">  1        2 0.86387989E-01 0.79085081E+02</pdfrwt>
<pdfrwt beam="1">  1       -2 0.42839960E-03 0.79085081E+02</pdfrwt>
<totfact> 0.32458588E+05</totfact>
</mgrwt>
</event>
<event>
 4    1  0.4696545E-002  0.9225793E+02  0.7818608E-02  0.1297474E+00
         -2   -1    0    0  501    0 -0.00000000000E+00  0.00000000000E+00  0.23448339768E+03  0.23448339769E+03  0.25500000000E-02 0.  1.
          2   -1    0    0    0  501  0.00000000000E+00 -0.00000000000E+00 -0.90747636713E+01  0.90747640296E+01  0.25500000000E-02 0.  1.
          2    1    1    2    0  502 -0.20587672497E+02 -0.37523797218E+01  0.22123080658E+03  0.22221836648E+03  0.25500000000E-02 0. -1.
         -2    1    1    2  502    0  0.20587672497E+02  0.37523797218E+01  0.41778274199E+01  0.21339795239E+02  0.25500000000E-02 0. -1.
<mgrwt>
<rscale>  0 0.92257931E+02</rscale>
<asrwt>0</asrwt>
<pdfrwt beam="2">  1        2 0.13961175E-02 0.92257931E+02</pdfrwt>
<pdfrwt beam="1">  1       -2 0.36074368E-01 0.92257931E+02</pdfrwt>
<totfact> 0.56237821E+04</totfact>
</mgrwt>
</event>
<event>
 4    1  0.4696545E-002  0.4074310E+02  0.7818608E-02  0.1502813E+00
         -2   -1    0    0  501    0 -0.00000000000E+00  0.00000000000E+00  0.76238912257E+01  0.76238916521E+01  0.25500000000E-02 0. -1.
          2   -1    0    0    0  501  0.00000000000E+00 -0.00000000000E+00 -0.54434154484E+02  0.54434154544E+02  0.25500000000E-02 0. -1.
          2    1    1    2    0  502  0.18935954839E+02  0.67927667857E+01 -0.18519622785E+02  0.27343893301E+02  0.25500000000E-02 0. -1.
         -2    1    1    2  502    0 -0.18935954839E+02 -0.67927667857E+01 -0.28290640473E+02  0.34714152894E+02  0.25500000000E-02 0. -1.
<mgrwt>
<rscale>  0 0.40743102E+02</rscale>
<asrwt>0</asrwt>
<pdfrwt beam="2">  1        2 0.83744851E-02 0.40743102E+02</pdfrwt>
<pdfrwt beam="1">  1       -2 0.11729064E-02 0.40743102E+02</pdfrwt>
<totfact> 0.87518403E+05</totfact>
</mgrwt>
</event>
<event>
 4    1  0.4696545E-002  0.4623464E+02  0.7818608E-02  0.1466778E+00
         -2   -1    0    0  501    0 -0.00000000000E+00  0.00000000000E+00  0.39425367666E+00  0.39426192317E+00  0.25500000000E-02 0. -1.
          2   -1    0    0    0  501  0.00000000000E+00 -0.00000000000E+00 -0.13554847748E+04  0.13554847748E+04  0.25500000000E-02 0. -1.
          2    1    1    2    0  502  0.16838855912E+02  0.15501316163E+02 -0.58219019276E+03  0.58263990459E+03  0.25500000000E-02 0.  1.
         -2    1    1    2  502    0 -0.16838855912E+02 -0.15501316163E+02 -0.77290032840E+03  0.77323913217E+03  0.25500000000E-02 0.  1.
<mgrwt>
<rscale>  0 0.46234638E+02</rscale>
<asrwt>0</asrwt>
<pdfrwt beam="2">  1        2 0.20853239E+00 0.46234638E+02</pdfrwt>
<pdfrwt beam="1">  1       -2 0.60656132E-04 0.46234638E+02</pdfrwt>
<totfact> 0.13694497E+06</totfact>
</mgrwt>
</event>
<event>
 4    1  0.4696545E-002  0.1905978E+03  0.7818608E-02  0.1157923E+00
          2   -1    0    0    0  501  0.00000000000E+00  0.00000000000E+00  0.15765872741E+04  0.15765872741E+04  0.25500000000E-02 0. -1.
         -2   -1    0    0  501    0 -0.00000000000E+00 -0.00000000000E+00 -0.57604668316E+01  0.57604673960E+01  0.25500000000E-02 0. -1.
          2    1    1    2    0  502 -0.61049243888E+02  0.72021965395E+02  0.67790122043E+03  0.68444447426E+03  0.25500000000E-02 0. -1.
         -2    1    1    2  502    0  0.61049243888E+02 -0.72021965395E+02  0.89292558685E+03  0.89790326724E+03  0.25500000000E-02 0. -1.
<mgrwt>
<rscale>  0 0.19059779E+03</rscale>
<asrwt>0</asrwt>
<pdfrwt beam="1">  1        2 0.24255183E+00 0.19059779E+03</pdfrwt>
<pdfrwt beam="2">  1       -2 0.88622592E-03 0.19059779E+03</pdfrwt>
<totfact> 0.30929570E+04</totfact>
</mgrwt>
</event>
<event>
 4    1  0.4696545E-002  0.7214293E+02  0.7818608E-02  0.1352954E+00
          2   -1    0    0    0  501  0.00000000000E+00  0.00000000000E+00  0.33077576245E+02  0.33077576343E+02  0.25500000000E-02 0.  1.
         -2   -1    0    0  501    0 -0.00000000000E+00 -0.00000000000E+00 -0.39336336722E+02  0.39336336805E+02  0.25500000000E-02 0.  1.
          2    1    1    2    0  502 -0.14993177405E+02  0.21414135269E+02  0.21819364696E+02  0.34050627604E+02  0.25500000000E-02 0. -1.
         -2    1    1    2  502    0  0.14993177405E+02 -0.21414135269E+02 -0.28078125173E+02  0.38363285544E+02  0.25500000000E-02 0. -1.
<mgrwt>
<rscale>  0 0.72142933E+02</rscale>
<asrwt>0</asrwt>
<pdfrwt beam="1">  1        2 0.50888579E-02 0.72142933E+02</pdfrwt>
<pdfrwt beam="2">  1       -2 0.60517442E-02 0.72142933E+02</pdfrwt>
<totfact> 0.17750466E+05</totfact>
</mgrwt>
</event>
<event>
 4    1  0.4696545E-002  0.4826621E+02  0.7818608E-02  0.1454924E+00
         -2   -1    0    0  501    0 -0.00000000000E+00  0.00000000000E+00  0.71997705558E+01  0.71997710074E+01  0.25500000000E-02 0.  1.
          2   -1    0    0    0  501  0.00000000000E+00 -0.00000000000E+00 -0.80892388850E+02  0.80892388890E+02  0.25500000000E-02 0.  1.
          2    1    1    2    0  502  0.19122211490E+02 -0.14518141650E+02 -0.32386394438E+02  0.40315182753E+02  0.25500000000E-02 0.  1.
         -2    1    1    2  502    0 -0.19122211490E+02  0.14518141650E+02 -0.41306223856E+02  0.47776977144E+02  0.25500000000E-02 0.  1.
<mgrwt>
<rscale>  0 0.48266206E+02</rscale>
<asrwt>0</asrwt>
<pdfrwt beam="2">  1        2 0.12444982E-01 0.48266206E+02</pdfrwt>
<pdfrwt beam="1">  1       -2 0.11076571E-02 0.48266206E+02</pdfrwt>
<totfact> 0.62123296E+05</totfact>
</mgrwt>
</event>
<event>
 4    1  0.4696545E-002  0.5778548E+02  0.7818608E-02  0.1407367E+00
          2   -1    0    0    0  501  0.00000000000E+00  0.00000000000E+00  0.59965121633E+02  0.59965121687E+02  0.25500000000E-02 0. -1.
         -2   -1    0    0  501    0 -0.00000000000E+00 -0.00000000000E+00 -0.13921266695E+02  0.13921266928E+02  0.25500000000E-02 0. -1.
          2    1    1    2    0  502  0.26654560832E+02  0.97074115236E+01  0.30035899634E+02  0.41314098380E+02  0.25500000000E-02 0. -1.
         -2    1    1    2  502    0 -0.26654560832E+02 -0.97074115236E+01  0.16007955304E+02  0.32572290235E+02  0.25500000000E-02 0. -1.
<mgrwt>
<rscale>  0 0.57785481E+02</rscale>
<asrwt>0</asrwt>
<pdfrwt beam="1">  1        2 0.92254033E-02 0.57785481E+02</pdfrwt>
<pdfrwt beam="2">  1       -2 0.21417334E-02 0.57785481E+02</pdfrwt>
<totfact> 0.36558714E+05</totfact>
</mgrwt>
</event>
<event>
 4    1  0.4696545E-002  0.4053684E+02  0.7818608E-02  0.1504298E+00
          2   -1    0    0    0  501  0.00000000000E+00  0.00000000000E+00  0.99236809265E+00  0.99237136890E+00  0.25500000000E-02 0. -1.
         -2   -1    0    0  501    0 -0.00000000000E+00 -0.00000000000E+00 -0.41396757374E+03  0.41396757374E+03  0.25500000000E-02 0. -1.
          2    1    1    2    0  502  0.14774387141E+02 -0.13766596788E+02 -0.18873605364E+03  0.18981332844E+03  0.25500000000E-02 0. -1.
         -2    1    1    2  502    0 -0.14774387141E+02  0.13766596788E+02 -0.22423915200E+03  0.22514661668E+03  0.25500000000E-02 0. -1.
<mgrwt>
<rscale>  0 0.40536842E+02</rscale>
<asrwt>0</asrwt>
<pdfrwt beam="1">  1        2 0.15267260E-03 0.40536842E+02</pdfrwt>
<pdfrwt beam="2">  1       -2 0.63687182E-01 0.40536842E+02</pdfrwt>
<totfact> 0.31681094E+05</totfact>
</mgrwt>
</event>
<event>
 4    1  0.4696545E-002  0.5534125E+02  0.7818608E-02  0.1418492E+00
          2   -1    0    0    0  501  0.00000000000E+00  0.00000000000E+00  0.22433512031E+01  0.22433526524E+01  0.25500000000E-02 0.  1.
         -2   -1    0    0  501    0 -0.00000000000E+00 -0.00000000000E+00 -0.34130331906E+03  0.34130331907E+03  0.25500000000E-02 0.  1.
          2    1    1    2    0  502  0.22004502326E+02  0.16095215071E+02 -0.19891674722E+03  0.20077630936E+03  0.25500000000E-02 0. -1.
         -2    1    1    2  502    0 -0.22004502326E+02 -0.16095215071E+02 -0.14014322064E+03  0.14277036236E+03  0.25500000000E-02 0. -1.
<mgrwt>
<rscale>  0 0.55341249E+02</rscale>
<asrwt>0</asrwt>
<pdfrwt beam="1">  1        2 0.34513134E-03 0.55341249E+02</pdfrwt>
<pdfrwt beam="2">  1       -2 0.52508162E-01 0.55341249E+02</pdfrwt>
<totfact> 0.16773326E+05</totfact>
</mgrwt>
</event>
<event>
 4    1  0.4696545E-002  0.7565603E+02  0.7818608E-02  0.1341851E+00
         -2   -1    0    0  501    0 -0.00000000000E+00  0.00000000000E+00  0.23344543658E+01  0.23344557585E+01  0.25500000000E-02 0. -1.
          2   -1    0    0    0  501  0.00000000000E+00 -0.00000000000E+00 -0.61297337388E+03  0.61297337388E+03  0.25500000000E-02 0. -1.
          2    1    1    2    0  502 -0.37785753562E+02 -0.16410913108E+01 -0.29955457365E+03  0.30193277224E+03  0.25500000000E-02 0.  1.
         -2    1    1    2  502    0  0.37785753562E+02  0.16410913108E+01 -0.31108434586E+03  0.31337505740E+03  0.25500000000E-02 0.  1.
<mgrwt>
<rscale>  0 0.75656032E+02</rscale>
<asrwt>0</asrwt>
<pdfrwt beam="2">  1        2 0.94303468E-01 0.75656032E+02</pdfrwt>
<pdfrwt beam="1">  1       -2 0.35914742E-03 0.75656032E+02</pdfrwt>
<totfact> 0.37342091E+05</totfact>
</mgrwt>
</event>
<event>
 4    1  0.4696545E-002  0.5704924E+02  0.7818608E-02  0.1410649E+00
         -2   -1    0    0  501    0 -0.00000000000E+00  0.00000000000E+00  0.46726537428E+00  0.46727233227E+00  0.25500000000E-02 0.  1.
          2   -1    0    0    0  501  0.00000000000E+00 -0.00000000000E+00 -0.17412971503E+04  0.17412971503E+04  0.25500000000E-02 0.  1.
          2    1    1    2    0  502  0.13873848282E+02 -0.18950520638E+02 -0.13646459619E+04  0.13648480528E+04  0.25500000000E-02 0. -1.
         -2    1    1    2  502    0 -0.13873848282E+02  0.18950520638E+02 -0.37618392306E+03  0.37691636987E+03  0.25500000000E-02 0. -1.
<mgrwt>
<rscale>  0 0.57049239E+02</rscale>
<asrwt>0</asrwt>
<pdfrwt beam="2">  1        2 0.26788667E+00 0.57049239E+02</pdfrwt>
<pdfrwt beam="1">  1       -2 0.71888910E-04 0.57049239E+02</pdfrwt>
<totfact> 0.73389911E+05</totfact>
</mgrwt>
</event>
<event>
 4    1  0.4696545E-002  0.9046574E+02  0.7818608E-02  0.1301728E+00
         -2   -1    0    0  501    0 -0.00000000000E+00  0.00000000000E+00  0.22583363409E+03  0.22583363410E+03  0.25500000000E-02 0. -1.
          2   -1    0    0    0  501  0.00000000000E+00 -0.00000000000E+00 -0.90598215503E+01  0.90598219092E+01  0.25500000000E-02 0. -1.
          2    1    1    2    0  502  0.11182256140E+02 -0.29137939016E+02  0.23376112240E+02  0.38993652976E+02  0.25500000000E-02 0.  1.
         -2    1    1    2  502    0 -0.11182256140E+02  0.29137939016E+02  0.19339770030E+03  0.19589980304E+03  0.25500000000E-02 0.  1.
<mgrwt>
<rscale>  0 0.90465739E+02</rscale>
<asrwt>0</asrwt>
<pdfrwt beam="2">  1        2 0.13938187E-02 0.90465739E+02</pdfrwt>
<pdfrwt beam="1">  1       -2 0.34743637E-01 0.90465739E+02</pdfrwt>
<totfact> 0.60199022E+04</totfact>
</mgrwt>
</event>
<event>
 4    1  0.4696545E-002  0.5124018E+02  0.7818608E-02  0.1438765E+00
          2   -1    0    0    0  501  0.00000000000E+00  0.00000000000E+00  0.73528937107E+03  0.73528937107E+03  0.25500000000E-02 0.  1.
         -2   -1    0    0  501    0 -0.00000000000E+00 -0.00000000000E+00 -0.89269294122E+00  0.89269658328E+00  0.25500000000E-02 0.  1.
          2    1    1    2    0  502 -0.25137544252E+02  0.31415757883E+01  0.42213950266E+03  0.42289895406E+03  0.25500000000E-02 0.  1.
         -2    1    1    2  502    0  0.25137544252E+02 -0.31415757883E+01  0.31225717547E+03  0.31328311360E+03  0.25500000000E-02 0.  1.
<mgrwt>
<rscale>  0 0.51240179E+02</rscale>
<asrwt>0</asrwt>
<pdfrwt beam="1">  1        2 0.11312118E+00 0.51240179E+02</pdfrwt>
<pdfrwt beam="2">  1       -2 0.13733797E-03 0.51240179E+02</pdfrwt>
<totfact> 0.10466616E+06</totfact>
</mgrwt>
</event>
<event>
 4    1  0.4696545E-002  0.5226713E+02  0.7818608E-02  0.1433483E+00
         -2   -1    0    0  501    0 -0.00000000000E+00  0.00000000000E+00  0.21551266428E+01  0.21551281514E+01  0.25500000000E-02 0.  1.
          2   -1    0    0    0  501  0.00000000000E+00 -0.00000000000E+00 -0.31690155145E+03  0.31690155146E+03  0.25500000000E-02 0.  1.
          2    1    1    2    0  502  0.18297308590E+02  0.18600507192E+02 -0.14833374249E+03  0.15061098744E+03  0.25500000000E-02 0.  1.
         -2    1    1    2  502    0 -0.18297308590E+02 -0.18600507192E+02 -0.16641268232E+03  0.16844569217E+03  0.25500000000E-02 0.  1.
<mgrwt>
<rscale>  0 0.52267130E+02</rscale>
<asrwt>0</asrwt>
<pdfrwt beam="2">  1        2 0.48754048E-01 0.52267130E+02</pdfrwt>
<pdfrwt beam="1">  1       -2 0.33155831E-03 0.52267130E+02</pdfrwt>
<totfact> 0.77198013E+05</totfact>
</mgrwt>
</event>
<event>
 4    1  0.4696545E-002  0.4808415E+02  0.7818608E-02  0.1455958E+00
         -2   -1    0    0  501    0 -0.00000000000E+00  0.00000000000E+00  0.33093315744E+00  0.33094298178E+00  0.25500000000E-02 0. -1.
          2   -1    0    0    0  501  0.00000000000E+00 -0.00000000000E+00 -0.17466146020E+04  0.17466146020E+04  0.25500000000E-02 0. -1.
          2    1    1    2    0  502 -0.47708014080E+01  0.19788736938E+02 -0.13379326104E+04  0.13380874503E+04  0.25500000000E-02 0.  1.
         -2    1    1    2  502    0  0.47708014080E+01 -0.19788736938E+02 -0.40835105844E+03  0.40885809468E+03  0.25500000000E-02 0.  1.
<mgrwt>
<rscale>  0 0.48084146E+02</rscale>
<asrwt>0</asrwt>
<pdfrwt beam="2">  1        2 0.26870256E+00 0.48084146E+02</pdfrwt>
<pdfrwt beam="1">  1       -2 0.50914948E-04 0.48084146E+02</pdfrwt>
<totfact> 0.11225038E+06</totfact>
</mgrwt>
</event>
<event>
 4    1  0.4696545E-002  0.7959916E+02  0.7818608E-02  0.1330193E+00
          2   -1    0    0    0  501  0.00000000000E+00  0.00000000000E+00  0.11758413230E+03  0.11758413233E+03  0.25500000000E-02 0. -1.
         -2   -1    0    0  501    0 -0.00000000000E+00 -0.00000000000E+00 -0.13471262782E+02  0.13471263023E+02  0.25500000000E-02 0. -1.
          2    1    1    2    0  502 -0.23545087001E+02 -0.16437156692E+02  0.66834276297E+01  0.29482527934E+02  0.25500000000E-02 0. -1.
         -2    1    1    2  502    0  0.23545087001E+02  0.16437156692E+02  0.97429441891E+02  0.10157286742E+03  0.25500000000E-02 0. -1.
<mgrwt>
<rscale>  0 0.79599165E+02</rscale>
<asrwt>0</asrwt>
<pdfrwt beam="1">  1        2 0.18089867E-01 0.79599165E+02</pdfrwt>
<pdfrwt beam="2">  1       -2 0.20725020E-02 0.79599165E+02</pdfrwt>
<totfact> 0.18640255E+05</totfact>
</mgrwt>
</event>
<event>
 4    1  0.4696545E-002  0.5145491E+02  0.7818608E-02  0.1437649E+00
         -2   -1    0    0  501    0 -0.00000000000E+00  0.00000000000E+00  0.69347177195E+01  0.69347181884E+01  0.25500000000E-02 0. -1.
          2   -1    0    0    0  501  0.00000000000E+00 -0.00000000000E+00 -0.95447557708E+02  0.95447557742E+02  0.25500000000E-02 0. -1.
          2    1    1    2    0  502 -0.78568809460E+01  0.24144990448E+02 -0.52506256582E+02  0.58323392637E+02  0.25500000000E-02 0. -1.
         -2    1    1    2  502    0  0.78568809460E+01 -0.24144990448E+02 -0.36006583407E+02  0.44058883293E+02  0.25500000000E-02 0. -1.
<mgrwt>
<rscale>  0 0.51454908E+02</rscale>
<asrwt>0</asrwt>
<pdfrwt beam="2">  1        2 0.14684239E-01 0.51454908E+02</pdfrwt>
<pdfrwt beam="1">  1       -2 0.10668798E-02 0.51454908E+02</pdfrwt>
<totfact> 0.55006698E+05</totfact>
</mgrwt>
</event>
<event>
 4    1  0.4696545E-002  0.4949733E+02  0.7818608E-02  0.1448072E+00
         -2   -1    0    0  501    0 -0.00000000000E+00  0.00000000000E+00  0.10866297429E+02  0.10866297728E+02  0.25500000000E-02 0. -1.
          2   -1    0    0    0  501  0.00000000000E+00 -0.00000000000E+00 -0.56366625423E+02  0.56366625481E+02  0.25500000000E-02 0. -1.
          2    1    1    2    0  502 -0.21174648008E+02  0.10771513281E+02 -0.13329171183E+02  0.27240742052E+02  0.25500000000E-02 0. -1.
         -2    1    1    2  502    0  0.21174648008E+02 -0.10771513281E+02 -0.32171156811E+02  0.39992181157E+02  0.25500000000E-02 0. -1.
<mgrwt>
<rscale>  0 0.49497334E+02</rscale>
<asrwt>0</asrwt>
<pdfrwt beam="2">  1        2 0.86717884E-02 0.49497334E+02</pdfrwt>
<pdfrwt beam="1">  1       -2 0.16717381E-02 0.49497334E+02</pdfrwt>
<totfact> 0.53888216E+05</totfact>
</mgrwt>
</event>
<event>
 4    1  0.4696545E-002  0.5206392E+02  0.7818608E-02  0.1434517E+00
          2   -1    0    0    0  501  0.00000000000E+00  0.00000000000E+00  0.28302216684E+03  0.28302216685E+03  0.25500000000E-02 0. -1.
         -2   -1    0    0  501    0 -0.00000000000E+00 -0.00000000000E+00 -0.23943806628E+01  0.23943820207E+01  0.25500000000E-02 0. -1.
          2    1    1    2    0  502  0.20554604577E+02 -0.81445806697E+01  0.64980791678E+02  0.68639123371E+02  0.25500000000E-02 0. -1.
         -2    1    1    2  502    0 -0.20554604577E+02  0.81445806697E+01  0.21564699450E+03  0.21677742550E+03  0.25500000000E-02 0. -1.
<mgrwt>
<rscale>  0 0.52063922E+02</rscale>
<asrwt>0</asrwt>
<pdfrwt beam="1">  1        2 0.43541852E-01 0.52063922E+02</pdfrwt>
<pdfrwt beam="2">  1       -2 0.36836653E-03 0.52063922E+02</pdfrwt>
<totfact> 0.74929213E+05</totfact>
</mgrwt>
</event>
<event>
 4    1  0.4696545E-002  0.4484693E+02  0.7818608E-02  0.1475300E+00
         -2   -1    0    0  501    0 -0.00000000000E+00  0.00000000000E+00  0.44773141964E+00  0.44773868119E+00  0.25500000000E-02 0. -1.
          2   -1    0    0    0  501  0.00000000000E+00 -0.00000000000E+00 -0.11230117510E+04  0.11230117510E+04  0.25500000000E-02 0. -1.
          2    1    1    2    0  502 -0.59009140082E+01  0.21537225167E+02 -0.61224623060E+03  0.61265334387E+03  0.25500000000E-02 0.  1.
         -2    1    1    2  502    0  0.59009140082E+01 -0.21537225167E+02 -0.51031778900E+03  0.51080614584E+03  0.25500000000E-02 0.  1.
<mgrwt>
<rscale>  0 0.44846927E+02</rscale>
<asrwt>0</asrwt>
<pdfrwt beam="2">  1        2 0.17276878E+00 0.44846927E+02</pdfrwt>
<pdfrwt beam="1">  1       -2 0.68883215E-04 0.44846927E+02</pdfrwt>
<totfact> 0.15120918E+06</totfact>
</mgrwt>
</event>
<event>
 4    1  0.4696545E-002  0.6134359E+02  0.7818608E-02  0.1392278E+00
         -2   -1    0    0  501    0 -0.00000000000E+00  0.00000000000E+00  0.20527994051E+02  0.20527994209E+02  0.25500000000E-02 0.  1.
          2   -1    0    0    0  501  0.00000000000E+00 -0.00000000000E+00 -0.45828099499E+02  0.45828099570E+02  0.25500000000E-02 0.  1.
          2    1    1    2    0  502  0.13161445250E+02 -0.25716696372E+02 -0.23796770011E+02  0.37428042733E+02  0.25500000000E-02 0.  1.
         -2    1    1    2  502    0 -0.13161445250E+02  0.25716696372E+02 -0.15033354373E+01  0.28928051046E+02  0.25500000000E-02 0.  1.
<mgrwt>
<rscale>  0 0.61343588E+02</rscale>
<asrwt>0</asrwt>
<pdfrwt beam="2">  1        2 0.70504768E-02 0.61343588E+02</pdfrwt>
<pdfrwt beam="1">  1       -2 0.31581530E-02 0.61343588E+02</pdfrwt>
<totfact> 0.29525482E+05</totfact>
</mgrwt>
</event>
<event>
 4    1  0.4696545E-002  0.9762562E+02  0.7818608E-02  0.1285370E+00
          2   -1    0    0    0  501  0.00000000000E+00  0.00000000000E+00  0.10411325663E+02  0.10411325976E+02  0.25500000000E-02 0. -1.
         -2   -1    0    0  501    0 -0.00000000000E+00 -0.00000000000E+00 -0.22885561096E+03  0.22885561098E+03  0.25500000000E-02 0. -1.
          2    1    1    2    0  502  0.46355755571E+02  0.89702864457E+01 -0.13957409094E+03  0.14734398183E+03  0.25500000000E-02 0. -1.
         -2    1    1    2  502    0 -0.46355755571E+02 -0.89702864457E+01 -0.78870194354E+02  0.91922955116E+02  0.25500000000E-02 0. -1.
<mgrwt>
<rscale>  0 0.97625618E+02</rscale>
<asrwt>0</asrwt>
<pdfrwt beam="1">  1        2 0.16017426E-02 0.97625618E+02</pdfrwt>
<pdfrwt beam="2">  1       -2 0.35208552E-01 0.97625618E+02</pdfrwt>
<totfact> 0.49204657E+04</totfact>
</mgrwt>
</event>
<event>
 4    1  0.4696545E-002  0.5122792E+02  0.7818608E-02  0.1438829E+00
         -2   -1    0    0  501    0 -0.00000000000E+00  0.00000000000E+00  0.11545261836E+01  0.11545289997E+01  0.25500000000E-02 0. -1.
          2   -1    0    0    0  501  0.00000000000E+00 -0.00000000000E+00 -0.56826270333E+03  0.56826270334E+03  0.25500000000E-02 0. -1.
          2    1    1    2    0  502  0.17843711161E+02 -0.17291688310E+02 -0.35267922042E+03  0.35355343732E+03  0.25500000000E-02 0.  1.
         -2    1    1    2  502    0 -0.17843711161E+02  0.17291688310E+02 -0.21442895673E+03  0.21586379502E+03  0.25500000000E-02 0.  1.
<mgrwt>
<rscale>  0 0.51227921E+02</rscale>
<asrwt>0</asrwt>
<pdfrwt beam="2">  1        2 0.87424808E-01 0.51227921E+02</pdfrwt>
<pdfrwt beam="1">  1       -2 0.17762008E-03 0.51227921E+02</pdfrwt>
<totfact> 0.98248171E+05</totfact>
</mgrwt>
</event>
<event>
 4    1  0.4696545E-002  0.5328808E+02  0.7818608E-02  0.1428373E+00
         -2   -1    0    0  501    0 -0.00000000000E+00  0.00000000000E+00  0.23185092825E+01  0.23185106848E+01  0.25500000000E-02 0. -1.
          2   -1    0    0    0  501  0.00000000000E+00 -0.00000000000E+00 -0.30619015370E+03  0.30619015371E+03  0.25500000000E-02 0. -1.
          2    1    1    2    0  502  0.24907837515E+02 -0.68388299642E+01 -0.18978260124E+03  0.19153225761E+03  0.25500000000E-02 0.  1.
         -2    1    1    2  502    0 -0.24907837515E+02  0.68388299642E+01 -0.11408904317E+03  0.11697640678E+03  0.25500000000E-02 0.  1.
<mgrwt>
<rscale>  0 0.53288082E+02</rscale>
<asrwt>0</asrwt>
<pdfrwt beam="2">  1        2 0.47106146E-01 0.53288082E+02</pdfrwt>
<pdfrwt beam="1">  1       -2 0.35669409E-03 0.53288082E+02</pdfrwt>
<totfact> 0.72665170E+05</totfact>
</mgrwt>
</event>
<event>
 4    1  0.4696545E-002  0.5064552E+02  0.7818608E-02  0.1441891E+00
         -2   -1    0    0  501    0 -0.00000000000E+00  0.00000000000E+00  0.39800942945E+03  0.39800942945E+03  0.25500000000E-02 0.  1.
          2   -1    0    0    0  501  0.00000000000E+00 -0.00000000000E+00 -0.16111217532E+01  0.16111237712E+01  0.25500000000E-02 0.  1.
          2    1    1    2    0  502  0.60690034462E+01  0.22539363815E+02  0.27566576031E+03  0.27665224947E+03  0.25500000000E-02 0.  1.
         -2    1    1    2  502    0 -0.60690034462E+01 -0.22539363815E+02  0.12073254739E+03  0.12296830376E+03  0.25500000000E-02 0.  1.
<mgrwt>
<rscale>  0 0.50645515E+02</rscale>
<asrwt>0</asrwt>
<pdfrwt beam="2">  1        2 0.24786500E-03 0.50645515E+02</pdfrwt>
<pdfrwt beam="1">  1       -2 0.61232231E-01 0.50645515E+02</pdfrwt>
<totfact> 0.18941185E+05</totfact>
</mgrwt>
</event>
<event>
 4    1  0.4696545E-002  0.4614460E+02  0.7818608E-02  0.1467320E+00
          2   -1    0    0    0  501  0.00000000000E+00  0.00000000000E+00  0.68538893702E+03  0.68538893702E+03  0.25500000000E-02 0.  1.
         -2   -1    0    0  501    0 -0.00000000000E+00 -0.00000000000E+00 -0.77668250900E+00  0.77668669506E+00  0.25500000000E-02 0.  1.
          2    1    1    2    0  502  0.18723380848E+02 -0.13396293744E+02  0.36488368093E+03  0.36560925356E+03  0.25500000000E-02 0. -1.
         -2    1    1    2  502    0 -0.18723380848E+02  0.13396293744E+02  0.31972857358E+03  0.32055637015E+03  0.25500000000E-02 0. -1.
<mgrwt>
<rscale>  0 0.46144600E+02</rscale>
<asrwt>0</asrwt>
<pdfrwt beam="1">  1        2 0.10544448E+00 0.46144600E+02</pdfrwt>
<pdfrwt beam="2">  1       -2 0.11948991E-03 0.46144600E+02</pdfrwt>
<totfact> 0.13337604E+06</totfact>
</mgrwt>
</event>
<event>
 4    1  0.4696545E-002  0.4614018E+02  0.7818608E-02  0.1467347E+00
          2   -1    0    0    0  501  0.00000000000E+00  0.00000000000E+00  0.44581601630E+03  0.44581601631E+03  0.25500000000E-02 0. -1.
         -2   -1    0    0  501    0 -0.00000000000E+00 -0.00000000000E+00 -0.11938299537E+01  0.11938326771E+01  0.25500000000E-02 0. -1.
          2    1    1    2    0  502  0.19021179640E+02  0.90000861258E+01  0.13069733931E+03  0.13238051720E+03  0.25500000000E-02 0. -1.
         -2    1    1    2  502    0 -0.19021179640E+02 -0.90000861258E+01  0.31392484704E+03  0.31462933179E+03  0.25500000000E-02 0. -1.
<mgrwt>
<rscale>  0 0.46140183E+02</rscale>
<asrwt>0</asrwt>
<pdfrwt beam="1">  1        2 0.68587115E-01 0.46140183E+02</pdfrwt>
<pdfrwt beam="2">  1       -2 0.18366626E-03 0.46140183E+02</pdfrwt>
<totfact> 0.11805526E+06</totfact>
</mgrwt>
</event>
<event>
 4    1  0.4696545E-002  0.4975161E+02  0.7818608E-02  0.1446686E+00
          2   -1    0    0    0  501  0.00000000000E+00  0.00000000000E+00  0.24811851516E+02  0.24811851647E+02  0.25500000000E-02 0.  1.
         -2   -1    0    0  501    0 -0.00000000000E+00 -0.00000000000E+00 -0.24939919581E+02  0.24939919711E+02  0.25500000000E-02 0.  1.
          2    1    1    2    0  502 -0.23843315367E+02  0.63286906528E+01  0.31374712850E+01  0.24867644554E+02  0.25500000000E-02 0. -1.
         -2    1    1    2  502    0  0.23843315367E+02 -0.63286906528E+01 -0.32655393494E+01  0.24884126805E+02  0.25500000000E-02 0. -1.
<mgrwt>
<rscale>  0 0.49751607E+02</rscale>
<asrwt>0</asrwt>
<pdfrwt beam="1">  1        2 0.38172079E-02 0.49751607E+02</pdfrwt>
<pdfrwt beam="2">  1       -2 0.38369108E-02 0.49751607E+02</pdfrwt>
<totfact> 0.46149732E+05</totfact>
</mgrwt>
</event>
<event>
 4    1  0.4696545E-002  0.5575030E+02  0.7818608E-02  0.1416584E+00
          2   -1    0    0    0  501  0.00000000000E+00  0.00000000000E+00  0.26222836871E+01  0.26222849269E+01  0.25500000000E-02 0.  1.
         -2   -1    0    0  501    0 -0.00000000000E+00 -0.00000000000E+00 -0.29631571610E+03  0.29631571611E+03  0.25500000000E-02 0.  1.
          2    1    1    2    0  502 -0.18603173053E+02 -0.18362834155E+02 -0.94927883750E+02  0.98461032117E+02  0.25500000000E-02 0.  1.
         -2    1    1    2  502    0  0.18603173053E+02  0.18362834155E+02 -0.19876554866E+03  0.20047696892E+03  0.25500000000E-02 0.  1.
<mgrwt>
<rscale>  0 0.55750302E+02</rscale>
<asrwt>0</asrwt>
<pdfrwt beam="1">  1        2 0.40342859E-03 0.55750302E+02</pdfrwt>
<pdfrwt beam="2">  1       -2 0.45587007E-01 0.55750302E+02</pdfrwt>
<totfact> 0.17863142E+05</totfact>
</mgrwt>
</event>
<event>
 4    1  0.4696545E-002  0.5559701E+02  0.7818608E-02  0.1417297E+00
         -2   -1    0    0  501    0 -0.00000000000E+00  0.00000000000E+00  0.30714300931E+01  0.30714311516E+01  0.25500000000E-02 0. -1.
          2   -1    0    0    0  501  0.00000000000E+00 -0.00000000000E+00 -0.25159505890E+03  0.25159505892E+03  0.25500000000E-02 0. -1.
          2    1    1    2    0  502  0.26912642273E+02  0.51528523197E+01 -0.14570487706E+03  0.14825907529E+03  0.25500000000E-02 0. -1.
         -2    1    1    2  502    0 -0.26912642273E+02 -0.51528523197E+01 -0.10281875175E+03  0.10640741478E+03  0.25500000000E-02 0. -1.
<mgrwt>
<rscale>  0 0.55597006E+02</rscale>
<asrwt>0</asrwt>
<pdfrwt beam="2">  1        2 0.38706916E-01 0.55597006E+02</pdfrwt>
<pdfrwt beam="1">  1       -2 0.47252799E-03 0.55597006E+02</pdfrwt>
<totfact> 0.60953254E+05</totfact>
</mgrwt>
</event>
<event>
 4    1  0.4696545E-002  0.4706473E+02  0.7818608E-02  0.1461849E+00
         -2   -1    0    0  501    0 -0.00000000000E+00  0.00000000000E+00  0.40508536916E+02  0.40508536996E+02  0.25500000000E-02 0. -1.
          2   -1    0    0    0  501  0.00000000000E+00 -0.00000000000E+00 -0.13670505397E+02  0.13670505634E+02  0.25500000000E-02 0. -1.
          2    1    1    2    0  502 -0.18178885631E+02  0.13684041098E+02  0.65075175401E+01  0.23665854191E+02  0.25500000000E-02 0. -1.
         -2    1    1    2  502    0  0.18178885631E+02 -0.13684041098E+02  0.20330513979E+02  0.30513188439E+02  0.25500000000E-02 0. -1.
<mgrwt>
<rscale>  0 0.47064729E+02</rscale>
<asrwt>0</asrwt>
<pdfrwt beam="2">  1        2 0.21031547E-02 0.47064729E+02</pdfrwt>
<pdfrwt beam="1">  1       -2 0.62320827E-02 0.47064729E+02</pdfrwt>
<totfact> 0.48782160E+05</totfact>
</mgrwt>
</event>
<event>
 4    1  0.4696545E-002  0.1243190E+03  0.7818608E-02  0.1236137E+00
          2   -1    0    0    0  501  0.00000000000E+00  0.00000000000E+00  0.29320163611E+02  0.29320163722E+02  0.25500000000E-02 0.  1.
         -2   -1    0    0  501    0 -0.00000000000E+00 -0.00000000000E+00 -0.13177966319E+03  0.13177966321E+03  0.25500000000E-02 0.  1.
          2    1    1    2    0  502  0.28447231340E+02  0.39746460011E+02 -0.14651398442E+01  0.48899618562E+02  0.25500000000E-02 0. -1.
         -2    1    1    2  502    0 -0.28447231340E+02 -0.39746460011E+02 -0.10099435973E+03  0.11220020837E+03  0.25500000000E-02 0. -1.
<mgrwt>
<rscale>  0 0.12431897E+03</rscale>
<asrwt>0</asrwt>
<pdfrwt beam="1">  1        2 0.45107945E-02 0.12431897E+03</pdfrwt>
<pdfrwt beam="2">  1       -2 0.20273794E-01 0.12431897E+03</pdfrwt>
<totfact> 0.33531772E+04</totfact>
</mgrwt>
</event>
<event>
 4    1  0.4696545E-002  0.9605481E+02  0.7818608E-02  0.1288818E+00
         -2   -1    0    0  501    0 -0.00000000000E+00  0.00000000000E+00  0.23534902363E+01  0.23534916178E+01  0.25500000000E-02 0.  1.
          2   -1    0    0    0  501  0.00000000000E+00 -0.00000000000E+00 -0.98008940500E+03  0.98008940500E+03  0.25500000000E-02 0.  1.
          2    1    1    2    0  502  0.21109955234E+00 -0.21369309113E+02 -0.92878114586E+03  0.92902696885E+03  0.25500000000E-02 0.  1.
         -2    1    1    2  502    0 -0.21109955234E+00  0.21369309113E+02 -0.48954768907E+02  0.53415927776E+02  0.25500000000E-02 0.  1.
<mgrwt>
<rscale>  0 0.96054808E+02</rscale>
<asrwt>0</asrwt>
<pdfrwt beam="2">  1        2 0.15078266E+00 0.96054808E+02</pdfrwt>
<pdfrwt beam="1">  1       -2 0.36207631E-03 0.96054808E+02</pdfrwt>
<totfact> 0.21765355E+05</totfact>
</mgrwt>
</event>
<event>
 4    1  0.4696545E-002  0.1143171E+03  0.7818608E-02  0.1252778E+00
          2   -1    0    0    0  501  0.00000000000E+00  0.00000000000E+00  0.10669665608E+03  0.10669665611E+03  0.25500000000E-02 0. -1.
         -2   -1    0    0  501    0 -0.00000000000E+00 -0.00000000000E+00 -0.30620467325E+02  0.30620467432E+02  0.25500000000E-02 0. -1.
          2    1    1    2    0  502 -0.32775946198E+02  0.46827649438E+02  0.38158651743E+02  0.68725352749E+02  0.25500000000E-02 0.  1.
         -2    1    1    2  502    0  0.32775946198E+02 -0.46827649438E+02  0.37917537012E+02  0.68591770794E+02  0.25500000000E-02 0.  1.
<mgrwt>
<rscale>  0 0.11431713E+03</rscale>
<asrwt>0</asrwt>
<pdfrwt beam="1">  1        2 0.16414870E-01 0.11431713E+03</pdfrwt>
<pdfrwt beam="2">  1       -2 0.47108412E-02 0.11431713E+03</pdfrwt>
<totfact> 0.66509019E+04</totfact>
</mgrwt>
</event>
<event>
 4    1  0.4696545E-002  0.1072541E+03  0.7818608E-02  0.1265741E+00
         -2   -1    0    0  501    0 -0.00000000000E+00  0.00000000000E+00  0.20064392710E+02  0.20064392872E+02  0.25500000000E-02 0.  1.
          2   -1    0    0    0  501  0.00000000000E+00 -0.00000000000E+00 -0.14333164745E+03  0.14333164747E+03  0.25500000000E-02 0.  1.
          2    1    1    2    0  502  0.20837381836E+02  0.17180169521E+01 -0.13686655232E+03  0.13845432899E+03  0.25500000000E-02 0.  1.
         -2    1    1    2  502    0 -0.20837381836E+02 -0.17180169521E+01  0.13599297584E+02  0.24941711355E+02  0.25500000000E-02 0.  1.
<mgrwt>
<rscale>  0 0.10725414E+03</rscale>
<asrwt>0</asrwt>
<pdfrwt beam="2">  1        2 0.22051022E-01 0.10725414E+03</pdfrwt>
<pdfrwt beam="1">  1       -2 0.30868297E-02 0.10725414E+03</pdfrwt>
<totfact> 0.88099984E+04</totfact>
</mgrwt>
</event>
<event>
 4    1  0.4696545E-002  0.5176427E+02  0.7818608E-02  0.1436051E+00
         -2   -1    0    0  501    0 -0.00000000000E+00  0.00000000000E+00  0.18963847983E+03  0.18963847985E+03  0.25500000000E-02 0. -1.
          2   -1    0    0    0  501  0.00000000000E+00 -0.00000000000E+00 -0.35324305780E+01  0.35324314984E+01  0.25500000000E-02 0. -1.
          2    1    1    2    0  502 -0.13572212211E+01 -0.21947136317E+02  0.14399725475E+03  0.14566649657E+03  0.25500000000E-02 0. -1.
         -2    1    1    2  502    0  0.13572212211E+01  0.21947136317E+02  0.42108794507E+02  0.47504414777E+02  0.25500000000E-02 0. -1.
<mgrwt>
<rscale>  0 0.51764268E+02</rscale>
<asrwt>0</asrwt>
<pdfrwt beam="2">  1        2 0.54345095E-03 0.51764268E+02</pdfrwt>
<pdfrwt beam="1">  1       -2 0.29175150E-01 0.51764268E+02</pdfrwt>
<totfact> 0.26453016E+05</totfact>
</mgrwt>
</event>
<event>
 4    1  0.4696545E-002  0.5315433E+02  0.7818608E-02  0.1429034E+00
         -2   -1    0    0  501    0 -0.00000000000E+00  0.00000000000E+00  0.11061286766E+01  0.11061316159E+01  0.25500000000E-02 0.  1.
          2   -1    0    0    0  501  0.00000000000E+00 -0.00000000000E+00 -0.63857379560E+03  0.63857379561E+03  0.25500000000E-02 0.  1.
          2    1    1    2    0  502  0.12100971952E+02 -0.19180976692E+02 -0.15197942689E+03  0.15366225819E+03  0.25500000000E-02 0. -1.
         -2    1    1    2  502    0 -0.12100971952E+02  0.19180976692E+02 -0.48548824004E+03  0.48601766903E+03  0.25500000000E-02 0. -1.
<mgrwt>
<rscale>  0 0.53154331E+02</rscale>
<asrwt>0</asrwt>
<pdfrwt beam="2">  1        2 0.98241828E-01 0.53154331E+02</pdfrwt>
<pdfrwt beam="1">  1       -2 0.17017438E-03 0.53154331E+02</pdfrwt>
<totfact> 0.92507680E+05</totfact>
</mgrwt>
</event>
<event>
 4    1  0.4696545E-002  0.7066435E+02  0.7818608E-02  0.1357848E+00
         -2   -1    0    0  501    0 -0.00000000000E+00  0.00000000000E+00  0.23438493760E+01  0.23438507632E+01  0.25500000000E-02 0. -1.
          2   -1    0    0    0  501  0.00000000000E+00 -0.00000000000E+00 -0.53261203275E+03  0.53261203275E+03  0.25500000000E-02 0. -1.
          2    1    1    2    0  502  0.23093020979E+02 -0.91459900818E+01 -0.45536400055E+03  0.45604090799E+03  0.25500000000E-02 0. -1.
         -2    1    1    2  502    0 -0.23093020979E+02  0.91459900818E+01 -0.74904182820E+02  0.78914975530E+02  0.25500000000E-02 0. -1.
<mgrwt>
<rscale>  0 0.70664355E+02</rscale>
<asrwt>0</asrwt>
<pdfrwt beam="2">  1        2 0.81940217E-01 0.70664355E+02</pdfrwt>
<pdfrwt beam="1">  1       -2 0.36059274E-03 0.70664355E+02</pdfrwt>
<totfact> 0.42755577E+05</totfact>
</mgrwt>
</event>
<event>
 4    1  0.4696545E-002  0.5268931E+02  0.7818608E-02  0.1431353E+00
         -2   -1    0    0  501    0 -0.00000000000E+00  0.00000000000E+00  0.80226035719E+01  0.80226039772E+01  0.25500000000E-02 0. -1.
          2   -1    0    0    0  501  0.00000000000E+00 -0.00000000000E+00 -0.86510657553E+02  0.86510657591E+02  0.25500000000E-02 0. -1.
          2    1    1    2    0  502  0.72637992545E+01  0.22610525895E+02 -0.18784099331E+02  0.30279383333E+02  0.25500000000E-02 0.  1.
         -2    1    1    2  502    0 -0.72637992545E+01 -0.22610525895E+02 -0.59703954651E+02  0.64253878235E+02  0.25500000000E-02 0.  1.
<mgrwt>
<rscale>  0 0.52689306E+02</rscale>
<asrwt>0</asrwt>
<pdfrwt beam="2">  1        2 0.13309331E-01 0.52689306E+02</pdfrwt>
<pdfrwt beam="1">  1       -2 0.12342468E-02 0.52689306E+02</pdfrwt>
<totfact> 0.50512531E+05</totfact>
</mgrwt>
</event>
<event>
 4    1  0.4696545E-002  0.5527393E+02  0.7818608E-02  0.1418808E+00
         -2   -1    0    0  501    0 -0.00000000000E+00  0.00000000000E+00  0.11189713384E+01  0.11189742440E+01  0.25500000000E-02 0.  1.
          2   -1    0    0    0  501  0.00000000000E+00 -0.00000000000E+00 -0.68259196152E+03  0.68259196152E+03  0.25500000000E-02 0.  1.
          2    1    1    2    0  502  0.26513265111E+02  0.25766343194E+01 -0.43180959401E+03  0.43263046328E+03  0.25500000000E-02 0.  1.
         -2    1    1    2  502    0 -0.26513265111E+02 -0.25766343194E+01 -0.24966339617E+03  0.25108047249E+03  0.25500000000E-02 0.  1.
<mgrwt>
<rscale>  0 0.55273930E+02</rscale>
<asrwt>0</asrwt>
<pdfrwt beam="2">  1        2 0.10501382E+00 0.55273930E+02</pdfrwt>
<pdfrwt beam="1">  1       -2 0.17215021E-03 0.55273930E+02</pdfrwt>
<totfact> 0.85289879E+05</totfact>
</mgrwt>
</event>
<event>
 4    1  0.4696545E-002  0.8143072E+02  0.7818608E-02  0.1325040E+00
          2   -1    0    0    0  501  0.00000000000E+00  0.00000000000E+00  0.54308755291E+01  0.54308761278E+01  0.25500000000E-02 0. -1.
         -2   -1    0    0  501    0 -0.00000000000E+00 -0.00000000000E+00 -0.30524370741E+03  0.30524370742E+03  0.25500000000E-02 0. -1.
          2    1    1    2    0  502  0.35763953173E+02 -0.19260259418E+02 -0.13930404853E+03  0.14510560252E+03  0.25500000000E-02 0. -1.
         -2    1    1    2  502    0 -0.35763953173E+02  0.19260259418E+02 -0.16050878335E+03  0.16556898103E+03  0.25500000000E-02 0. -1.
<mgrwt>
<rscale>  0 0.81430723E+02</rscale>
<asrwt>0</asrwt>
<pdfrwt beam="1">  1        2 0.83551959E-03 0.81430723E+02</pdfrwt>
<pdfrwt beam="2">  1       -2 0.46960557E-01 0.81430723E+02</pdfrwt>
<totfact> 0.67509468E+04</totfact>
</mgrwt>
</event>
<event>
 4    1  0.4696545E-002  0.6114167E+02  0.7818608E-02  0.1393102E+00
         -2   -1    0    0  501    0 -0.00000000000E+00  0.00000000000E+00  0.21368760925E+01  0.21368776140E+01  0.25500000000E-02 0.  1.
          2   -1    0    0    0  501  0.00000000000E+00 -0.00000000000E+00 -0.43735594946E+03  0.43735594947E+03  0.25500000000E-02 0.  1.
          2    1    1    2    0  502 -0.25741433910E+02 -0.15755619058E+02 -0.25261410454E+03  0.25441058699E+03  0.25500000000E-02 0. -1.
         -2    1    1    2  502    0  0.25741433910E+02  0.15755619058E+02 -0.18260496883E+03  0.18508224009E+03  0.25500000000E-02 0. -1.
<mgrwt>
<rscale>  0 0.61141665E+02</rscale>
<asrwt>0</asrwt>
<pdfrwt beam="2">  1        2 0.67285460E-01 0.61141665E+02</pdfrwt>
<pdfrwt beam="1">  1       -2 0.32875063E-03 0.61141665E+02</pdfrwt>
<totfact> 0.58104469E+05</totfact>
</mgrwt>
</event>
<event>
 4    1  0.4696545E-002  0.4551176E+02  0.7818608E-02  0.1471172E+00
         -2   -1    0    0  501    0 -0.00000000000E+00  0.00000000000E+00  0.36650146773E+00  0.36651033866E+00  0.25500000000E-02 0. -1.
          2   -1    0    0    0  501  0.00000000000E+00 -0.00000000000E+00 -0.14128830283E+04  0.14128830283E+04  0.25500000000E-02 0. -1.
          2    1    1    2    0  502  0.15568591584E+02  0.15944687395E+02 -0.56322875130E+03  0.56366944249E+03  0.25500000000E-02 0.  1.
         -2    1    1    2  502    0 -0.15568591584E+02 -0.15944687395E+02 -0.84928777553E+03  0.84958009615E+03  0.25500000000E-02 0.  1.
<mgrwt>
<rscale>  0 0.45511756E+02</rscale>
<asrwt>0</asrwt>
<pdfrwt beam="2">  1        2 0.21736226E+00 0.45511756E+02</pdfrwt>
<pdfrwt beam="1">  1       -2 0.56386655E-04 0.45511756E+02</pdfrwt>
<totfact> 0.14084948E+06</totfact>
</mgrwt>
</event>
<event>
 4    1  0.4696545E-002  0.4464005E+02  0.7818608E-02  0.1476601E+00
         -2   -1    0    0  501    0 -0.00000000000E+00  0.00000000000E+00  0.69852999612E+00  0.69853465052E+00  0.25500000000E-02 0.  1.
          2   -1    0    0    0  501  0.00000000000E+00 -0.00000000000E+00 -0.71318595127E+03  0.71318595127E+03  0.25500000000E-02 0.  1.
          2    1    1    2    0  502  0.19839439865E+01 -0.20662076847E+02 -0.48746208548E+03  0.48790382478E+03  0.25500000000E-02 0.  1.
         -2    1    1    2  502    0 -0.19839439865E+01  0.20662076847E+02 -0.22502533579E+03  0.22598066114E+03  0.25500000000E-02 0.  1.
<mgrwt>
<rscale>  0 0.44640047E+02</rscale>
<asrwt>0</asrwt>
<pdfrwt beam="2">  1        2 0.10972033E+00 0.44640047E+02</pdfrwt>
<pdfrwt beam="1">  1       -2 0.10746708E-03 0.44640047E+02</pdfrwt>
<totfact> 0.14589204E+06</totfact>
</mgrwt>
</event>
<event>
 4    1  0.4696545E-002  0.4181740E+02  0.7818608E-02  0.1495248E+00
          2   -1    0    0    0  501  0.00000000000E+00  0.00000000000E+00  0.61067031304E+03  0.61067031305E+03  0.25500000000E-02 0.  1.
         -2   -1    0    0  501    0 -0.00000000000E+00 -0.00000000000E+00 -0.71588938450E+00  0.71589392604E+00  0.25500000000E-02 0.  1.
          2    1    1    2    0  502  0.20311851826E+02  0.46145955748E+01  0.27838596021E+03  0.27916412496E+03  0.25500000000E-02 0.  1.
         -2    1    1    2  502    0 -0.20311851826E+02 -0.46145955748E+01  0.33156846345E+03  0.33222208201E+03  0.25500000000E-02 0.  1.
<mgrwt>
<rscale>  0 0.41817402E+02</rscale>
<asrwt>0</asrwt>
<pdfrwt beam="1">  1        2 0.93949219E-01 0.41817402E+02</pdfrwt>
<pdfrwt beam="2">  1       -2 0.11013725E-03 0.41817402E+02</pdfrwt>
<totfact> 0.16467889E+06</totfact>
</mgrwt>
</event>
<event>
 4    1  0.4696545E-002  0.6825712E+02  0.7818608E-02  0.1366122E+00
         -2   -1    0    0  501    0 -0.00000000000E+00  0.00000000000E+00  0.18756694983E+01  0.18756712317E+01  0.25500000000E-02 0.  1.
          2   -1    0    0    0  501  0.00000000000E+00 -0.00000000000E+00 -0.62098262629E+03  0.62098262630E+03  0.25500000000E-02 0.  1.
          2    1    1    2    0  502 -0.13759692023E+02  0.25667521525E+02 -0.14718483493E+03  0.15003841650E+03  0.25500000000E-02 0. -1.
         -2    1    1    2  502    0  0.13759692023E+02 -0.25667521525E+02 -0.47192212187E+03  0.47281988103E+03  0.25500000000E-02 0. -1.
<mgrwt>
<rscale>  0 0.68257123E+02</rscale>
<asrwt>0</asrwt>
<pdfrwt beam="2">  1        2 0.95535625E-01 0.68257123E+02</pdfrwt>
<pdfrwt beam="1">  1       -2 0.28856517E-03 0.68257123E+02</pdfrwt>
<totfact> 0.48844386E+05</totfact>
</mgrwt>
</event>
<event>
 4    1  0.4696545E-002  0.1051088E+03  0.7818608E-02  0.1269905E+00
         -2   -1    0    0  501    0 -0.00000000000E+00  0.00000000000E+00  0.27247447320E+01  0.27247459252E+01  0.25500000000E-02 0. -1.
          2   -1    0    0    0  501  0.00000000000E+00 -0.00000000000E+00 -0.10136597162E+04  0.10136597162E+04  0.25500000000E-02 0. -1.
          2    1    1    2    0  502 -0.59266754525E+01  0.47633184512E+02 -0.29854236475E+03  0.30237656871E+03  0.25500000000E-02 0. -1.
         -2    1    1    2  502    0  0.59266754525E+01 -0.47633184512E+02 -0.71239260673E+03  0.71400789343E+03  0.25500000000E-02 0. -1.
<mgrwt>
<rscale>  0 0.10510879E+03</rscale>
<asrwt>0</asrwt>
<pdfrwt beam="2">  1        2 0.15594735E+00 0.10510879E+03</pdfrwt>
<pdfrwt beam="1">  1       -2 0.41919240E-03 0.10510879E+03</pdfrwt>
<totfact> 0.17157440E+05</totfact>
</mgrwt>
</event>
<event>
 4    1  0.4696545E-002  0.5037351E+02  0.7818608E-02  0.1443337E+00
          2   -1    0    0    0  501  0.00000000000E+00  0.00000000000E+00  0.69644711936E+03  0.69644711937E+03  0.25500000000E-02 0.  1.
         -2   -1    0    0  501    0 -0.00000000000E+00 -0.00000000000E+00 -0.91086812439E+00  0.91087169378E+00  0.25500000000E-02 0.  1.
          2    1    1    2    0  502 -0.13701327270E+02  0.20171739726E+02  0.26048964473E+03  0.26162851616E+03  0.25500000000E-02 0.  1.
         -2    1    1    2  502    0  0.13701327270E+02 -0.20171739726E+02  0.43504660651E+03  0.43572947490E+03  0.25500000000E-02 0.  1.
<mgrwt>
<rscale>  0 0.50373514E+02</rscale>
<asrwt>0</asrwt>
<pdfrwt beam="1">  1        2 0.10714606E+00 0.50373514E+02</pdfrwt>
<pdfrwt beam="2">  1       -2 0.14013337E-03 0.50373514E+02</pdfrwt>
<totfact> 0.10791066E+06</totfact>
</mgrwt>
</event>
<event>
 4    1  0.4696545E-002  0.5546299E+02  0.7818608E-02  0.1417922E+00
          2   -1    0    0    0  501  0.00000000000E+00  0.00000000000E+00  0.20118099560E+01  0.20118115721E+01  0.25500000000E-02 0.  1.
         -2   -1    0    0  501    0 -0.00000000000E+00 -0.00000000000E+00 -0.38226054711E+03  0.38226054712E+03  0.25500000000E-02 0.  1.
          2    1    1    2    0  502  0.26904502087E+02 -0.64333759169E+01 -0.17662665664E+03  0.17877979864E+03  0.25500000000E-02 0.  1.
         -2    1    1    2  502    0 -0.26904502087E+02  0.64333759169E+01 -0.20362208051E+03  0.20549256005E+03  0.25500000000E-02 0.  1.
<mgrwt>
<rscale>  0 0.55462993E+02</rscale>
<asrwt>0</asrwt>
<pdfrwt beam="1">  1        2 0.30950965E-03 0.55462993E+02</pdfrwt>
<pdfrwt beam="2">  1       -2 0.58809257E-01 0.55462993E+02</pdfrwt>
<totfact> 0.15537333E+05</totfact>
</mgrwt>
</event>
<event>
 4    1  0.4696545E-002  0.6187331E+02  0.7818608E-02  0.1390134E+00
          2   -1    0    0    0  501  0.00000000000E+00  0.00000000000E+00  0.50658429299E+02  0.50658429363E+02  0.25500000000E-02 0. -1.
         -2   -1    0    0  501    0 -0.00000000000E+00 -0.00000000000E+00 -0.18892742283E+02  0.18892742455E+02  0.25500000000E-02 0. -1.
          2    1    1    2    0  502 -0.23205069620E+02 -0.19423309184E+02  0.23110004170E+02  0.38076403388E+02  0.25500000000E-02 0.  1.
         -2    1    1    2  502    0  0.23205069620E+02  0.19423309184E+02  0.86556828456E+01  0.31474768430E+02  0.25500000000E-02 0.  1.
<mgrwt>
<rscale>  0 0.61873311E+02</rscale>
<asrwt>0</asrwt>
<pdfrwt beam="1">  1        2 0.77936044E-02 0.61873311E+02</pdfrwt>
<pdfrwt beam="2">  1       -2 0.29065758E-02 0.61873311E+02</pdfrwt>
<totfact> 0.29457996E+05</totfact>
</mgrwt>
</event>
<event>
 4    1  0.4696545E-002  0.6781572E+02  0.7818608E-02  0.1367682E+00
         -2   -1    0    0  501    0 -0.00000000000E+00  0.00000000000E+00  0.19489877009E+02  0.19489877176E+02  0.25500000000E-02 0. -1.
          2   -1    0    0    0  501  0.00000000000E+00 -0.00000000000E+00 -0.58991804206E+02  0.58991804261E+02  0.25500000000E-02 0. -1.
          2    1    1    2    0  502  0.50120676206E+01 -0.33435637515E+02 -0.22742105144E+02  0.40746362178E+02  0.25500000000E-02 0.  1.
         -2    1    1    2  502    0 -0.50120676206E+01  0.33435637515E+02 -0.16759822052E+02  0.37735319259E+02  0.25500000000E-02 0.  1.
<mgrwt>
<rscale>  0 0.67815721E+02</rscale>
<asrwt>0</asrwt>
<pdfrwt beam="2">  1        2 0.90756621E-02 0.67815721E+02</pdfrwt>
<pdfrwt beam="1">  1       -2 0.29984427E-02 0.67815721E+02</pdfrwt>
<totfact> 0.23835765E+05</totfact>
</mgrwt>
</event>
<event>
 4    1  0.4696545E-002  0.4020782E+02  0.7818608E-02  0.1506688E+00
         -2   -1    0    0  501    0 -0.00000000000E+00  0.00000000000E+00  0.50027047336E+00  0.50027697230E+00  0.25500000000E-02 0. -1.
          2   -1    0    0    0  501  0.00000000000E+00 -0.00000000000E+00 -0.80789194136E+03  0.80789194137E+03  0.25500000000E-02 0. -1.
          2    1    1    2    0  502 -0.18052158204E+02  0.87212475578E+01 -0.43369616522E+03  0.43415930752E+03  0.25500000000E-02 0.  1.
         -2    1    1    2  502    0  0.18052158204E+02 -0.87212475578E+01 -0.37369550567E+03  0.37423291082E+03  0.25500000000E-02 0.  1.
<mgrwt>
<rscale>  0 0.40207816E+02</rscale>
<asrwt>0</asrwt>
<pdfrwt beam="2">  1        2 0.12429002E+00 0.40207816E+02</pdfrwt>
<pdfrwt beam="1">  1       -2 0.76965835E-04 0.40207816E+02</pdfrwt>
<totfact> 0.19240027E+06</totfact>
</mgrwt>
</event>
<event>
 4    1  0.4696545E-002  0.5862856E+02  0.7818608E-02  0.1403679E+00
          2   -1    0    0    0  501  0.00000000000E+00  0.00000000000E+00  0.24142382886E+04  0.24142382886E+04  0.25500000000E-02 0. -1.
         -2   -1    0    0  501    0 -0.00000000000E+00 -0.00000000000E+00 -0.35593669176E+00  0.35594582600E+00  0.25500000000E-02 0. -1.
          2    1    1    2    0  502  0.50725904929E+01 -0.28739881757E+02  0.13205915510E+04  0.13209139853E+04  0.25500000000E-02 0.  1.
         -2    1    1    2  502    0 -0.50725904929E+01  0.28739881757E+02  0.10932908009E+04  0.10936802491E+04  0.25500000000E-02 0.  1.
<mgrwt>
<rscale>  0 0.58628560E+02</rscale>
<asrwt>0</asrwt>
<pdfrwt beam="1">  1        2 0.37143005E+00 0.58628560E+02</pdfrwt>
<pdfrwt beam="2">  1       -2 0.54758900E-04 0.58628560E+02</pdfrwt>
<totfact> 0.49462333E+05</totfact>
</mgrwt>
</event>
