<event>
 4    1  0.4834411E-002  0.6195016E+02  0.7818608E-02  0.1389825E+00
          2   -1    0    0    0  501  0.00000000000E+00  0.00000000000E+00  0.15804018299E+04  0.15804018299E+04  0.25500000000E-02 0. -1.
         -2   -1    0    0  501    0 -0.00000000000E+00 -0.00000000000E+00 -0.60709325816E+00  0.60709861358E+00  0.25500000000E-02 0. -1.
          2    1    1    2    0  502 -0.17979909361E+02  0.25197944194E+02  0.76145594122E+03  0.76208487976E+03  0.25500000000E-02 0.  1.
         -2    1    1    2  502    0  0.17979909361E+02 -0.25197944194E+02  0.81833879541E+03  0.81892404875E+03  0.25500000000E-02 0.  1.
<mgrwt>
<rscale>  0 0.61950158E+02</rscale>
<asrwt>0</asrwt>
<pdfrwt beam="1">  1        2 0.24313649E+00 0.61950158E+02</pdfrwt>
<pdfrwt beam="2">  1       -2 0.93400241E-04 0.61950158E+02</pdfrwt>
<totfact> 0.62713050E+05</totfact>
</mgrwt>
</event>
<event>
 4    1  0.4834411E-002  0.4513363E+02  0.7818608E-02  0.1473509E+00
         -2   -1    0    0  501    0 -0.00000000000E+00  0.00000000000E+00  0.67024040036E+01  0.67024044887E+01  0.25500000000E-02 0. -1.
          2   -1    0    0    0  501  0.00000000000E+00 -0.00000000000E+00 -0.75981853709E+02  0.75981853752E+02  0.25500000000E-02 0. -1.
          2    1    1    2    0  502 -0.50904197203E+01 -0.19694784811E+02 -0.16740146692E+02  0.26344438492E+02  0.25500000000E-02 0.  1.
         -2    1    1    2  502    0  0.50904197203E+01  0.19694784811E+02 -0.52539303014E+02  0.56339819749E+02  0.25500000000E-02 0.  1.
<mgrwt>
<rscale>  0 0.45133628E+02</rscale>
<asrwt>0</asrwt>
<pdfrwt beam="2">  1        2 0.11689515E-01 0.45133628E+02</pdfrwt>
<pdfrwt beam="1">  1       -2 0.10311392E-02 0.45133628E+02</pdfrwt>
<totfact> 0.72527881E+05</totfact>
</mgrwt>
</event>
<event>
 4    1  0.4834411E-002  0.5885759E+02  0.7818608E-02  0.1402689E+00
         -2   -1    0    0  501    0 -0.00000000000E+00  0.00000000000E+00  0.20014359725E+01  0.20014375969E+01  0.25500000000E-02 0. -1.
          2   -1    0    0    0  501  0.00000000000E+00 -0.00000000000E+00 -0.43271615847E+03  0.43271615847E+03  0.25500000000E-02 0. -1.
          2    1    1    2    0  502 -0.20527578567E+02 -0.88991370743E+00 -0.37096747230E+03  0.37153605335E+03  0.25500000000E-02 0.  1.
         -2    1    1    2  502    0  0.20527578567E+02  0.88991370743E+00 -0.59747250192E+02  0.63181542718E+02  0.25500000000E-02 0.  1.
<mgrwt>
<rscale>  0 0.58857592E+02</rscale>
<asrwt>0</asrwt>
<pdfrwt beam="2">  1        2 0.66571642E-01 0.58857592E+02</pdfrwt>
<pdfrwt beam="1">  1       -2 0.30791370E-03 0.58857592E+02</pdfrwt>
<totfact> 0.63757119E+05</totfact>
</mgrwt>
</event>
<event>
 4    1  0.4834411E-002  0.4982676E+02  0.7818608E-02  0.1446278E+00
         -2   -1    0    0  501    0 -0.00000000000E+00  0.00000000000E+00  0.36176514649E+03  0.36176514650E+03  0.25500000000E-02 0. -1.
          2   -1    0    0    0  501  0.00000000000E+00 -0.00000000000E+00 -0.17156882308E+01  0.17156901258E+01  0.25500000000E-02 0. -1.
          2    1    1    2    0  502  0.26581494158E+01 -0.24770291112E+02  0.18154556205E+03  0.18324689408E+03  0.25500000000E-02 0.  1.
         -2    1    1    2  502    0 -0.26581494158E+01  0.24770291112E+02  0.17850389621E+03  0.18023394255E+03  0.25500000000E-02 0.  1.
<mgrwt>
<rscale>  0 0.49826762E+02</rscale>
<asrwt>0</asrwt>
<pdfrwt beam="2">  1        2 0.26395231E-03 0.49826762E+02</pdfrwt>
<pdfrwt beam="1">  1       -2 0.55656149E-01 0.49826762E+02</pdfrwt>
<totfact> 0.20975013E+05</totfact>
</mgrwt>
</event>
<event>
 4    1  0.4834411E-002  0.4703291E+02  0.7818608E-02  0.1462035E+00
          2   -1    0    0    0  501  0.00000000000E+00  0.00000000000E+00  0.51478615980E+03  0.51478615980E+03  0.25500000000E-02 0. -1.
         -2   -1    0    0  501    0 -0.00000000000E+00 -0.00000000000E+00 -0.10742770893E+01  0.10742801157E+01  0.25500000000E-02 0. -1.
          2    1    1    2    0  502  0.19084116220E+02 -0.11780622842E+02  0.17927111810E+03  0.18066853727E+03  0.25500000000E-02 0.  1.
         -2    1    1    2  502    0 -0.19084116220E+02  0.11780622842E+02  0.33444076460E+03  0.33519190265E+03  0.25500000000E-02 0.  1.
<mgrwt>
<rscale>  0 0.47032914E+02</rscale>
<asrwt>0</asrwt>
<pdfrwt beam="1">  1        2 0.79197978E-01 0.47032914E+02</pdfrwt>
<pdfrwt beam="2">  1       -2 0.16527341E-03 0.47032914E+02</pdfrwt>
<totfact> 0.11783125E+06</totfact>
</mgrwt>
</event>
<event>
 4    1  0.4834411E-002  0.5254826E+02  0.7818608E-02  0.1432062E+00
         -2   -1    0    0  501    0 -0.00000000000E+00  0.00000000000E+00  0.16807263567E+01  0.16807282911E+01  0.25500000000E-02 0. -1.
          2   -1    0    0    0  501  0.00000000000E+00 -0.00000000000E+00 -0.41073288870E+03  0.41073288871E+03  0.25500000000E-02 0. -1.
          2    1    1    2    0  502  0.24958743556E+02 -0.82078392522E+01 -0.20334934877E+03  0.20503966728E+03  0.25500000000E-02 0.  1.
         -2    1    1    2  502    0 -0.24958743556E+02  0.82078392522E+01 -0.20570281358E+03  0.20737394973E+03  0.25500000000E-02 0.  1.
<mgrwt>
<rscale>  0 0.52548263E+02</rscale>
<asrwt>0</asrwt>
<pdfrwt beam="2">  1        2 0.63189595E-01 0.52548263E+02</pdfrwt>
<pdfrwt beam="1">  1       -2 0.25857376E-03 0.52548263E+02</pdfrwt>
<totfact> 0.83290021E+05</totfact>
</mgrwt>
</event>
<event>
 4    1  0.4834411E-002  0.4918559E+02  0.7818608E-02  0.1449784E+00
          2   -1    0    0    0  501  0.00000000000E+00  0.00000000000E+00  0.11607578396E+02  0.11607578676E+02  0.25500000000E-02 0.  1.
         -2   -1    0    0  501    0 -0.00000000000E+00 -0.00000000000E+00 -0.52104363017E+02  0.52104363079E+02  0.25500000000E-02 0.  1.
          2    1    1    2    0  502  0.23051316158E+02  0.73927113242E+01 -0.25863367279E+02  0.35424978911E+02  0.25500000000E-02 0.  1.
         -2    1    1    2  502    0 -0.23051316158E+02 -0.73927113242E+01 -0.14633417342E+02  0.28286962844E+02  0.25500000000E-02 0.  1.
<mgrwt>
<rscale>  0 0.49185587E+02</rscale>
<asrwt>0</asrwt>
<pdfrwt beam="1">  1        2 0.17857813E-02 0.49185587E+02</pdfrwt>
<pdfrwt beam="2">  1       -2 0.80160558E-02 0.49185587E+02</pdfrwt>
<totfact> 0.42102308E+05</totfact>
</mgrwt>
</event>
<event>
 4    1  0.4834411E-002  0.6713433E+02  0.7818608E-02  0.1370118E+00
          2   -1    0    0    0  501  0.00000000000E+00  0.00000000000E+00  0.16645144370E+03  0.16645144372E+03  0.25500000000E-02 0. -1.
         -2   -1    0    0  501    0 -0.00000000000E+00 -0.00000000000E+00 -0.67692693286E+01  0.67692698089E+01  0.25500000000E-02 0. -1.
          2    1    1    2    0  502 -0.20182201074E+02  0.30459951413E+01  0.14860044702E+03  0.14999564057E+03  0.25500000000E-02 0. -1.
         -2    1    1    2  502    0  0.20182201074E+02 -0.30459951413E+01  0.11081727348E+02  0.23225072962E+02  0.25500000000E-02 0. -1.
<mgrwt>
<rscale>  0 0.67134334E+02</rscale>
<asrwt>0</asrwt>
<pdfrwt beam="1">  1        2 0.25607911E-01 0.67134334E+02</pdfrwt>
<pdfrwt beam="2">  1       -2 0.10414262E-02 0.67134334E+02</pdfrwt>
<totfact> 0.32648621E+05</totfact>
</mgrwt>
</event>
<event>
 4    1  0.4834411E-002  0.6693872E+02  0.7818608E-02  0.1370824E+00
          2   -1    0    0    0  501  0.00000000000E+00  0.00000000000E+00  0.47473585300E+03  0.47473585301E+03  0.25500000000E-02 0. -1.
         -2   -1    0    0  501    0 -0.00000000000E+00 -0.00000000000E+00 -0.23596234704E+01  0.23596248483E+01  0.25500000000E-02 0. -1.
          2    1    1    2    0  502  0.29094744468E+02 -0.19656745907E+01  0.11911070369E+03  0.12262841340E+03  0.25500000000E-02 0. -1.
         -2    1    1    2  502    0 -0.29094744468E+02  0.19656745907E+01  0.35326552584E+03  0.35446706446E+03  0.25500000000E-02 0. -1.
<mgrwt>
<rscale>  0 0.66938724E+02</rscale>
<asrwt>0</asrwt>
<pdfrwt beam="1">  1        2 0.73036213E-01 0.66938724E+02</pdfrwt>
<pdfrwt beam="2">  1       -2 0.36301946E-03 0.66938724E+02</pdfrwt>
<totfact> 0.47383937E+05</totfact>
</mgrwt>
</event>
<event>
 4    1  0.4834411E-002  0.5389893E+02  0.7818608E-02  0.1425379E+00
         -2   -1    0    0  501    0 -0.00000000000E+00  0.00000000000E+00  0.59147650389E+01  0.59147655886E+01  0.25500000000E-02 0. -1.
          2   -1    0    0    0  501  0.00000000000E+00 -0.00000000000E+00 -0.12278995731E+03  0.12278995734E+03  0.25500000000E-02 0. -1.
          2    1    1    2    0  502  0.16529606999E+02 -0.21125750839E+02 -0.64640836527E+02  0.69985448555E+02  0.25500000000E-02 0. -1.
         -2    1    1    2  502    0 -0.16529606999E+02  0.21125750839E+02 -0.52234355746E+02  0.58719274372E+02  0.25500000000E-02 0. -1.
<mgrwt>
<rscale>  0 0.53898934E+02</rscale>
<asrwt>0</asrwt>
<pdfrwt beam="2">  1        2 0.18890761E-01 0.53898934E+02</pdfrwt>
<pdfrwt beam="1">  1       -2 0.90996398E-03 0.53898934E+02</pdfrwt>
<totfact> 0.52333142E+05</totfact>
</mgrwt>
</event>
<event>
 4    1  0.4834411E-002  0.5600109E+02  0.7818608E-02  0.1415423E+00
         -2   -1    0    0  501    0 -0.00000000000E+00  0.00000000000E+00  0.11135814019E+01  0.11135843215E+01  0.25500000000E-02 0. -1.
          2   -1    0    0    0  501  0.00000000000E+00 -0.00000000000E+00 -0.70406134161E+03  0.70406134161E+03  0.25500000000E-02 0. -1.
          2    1    1    2    0  502  0.96086963023E+01 -0.19078775791E+02 -0.12352306052E+03  0.12535658426E+03  0.25500000000E-02 0.  1.
         -2    1    1    2  502    0 -0.96086963023E+01  0.19078775791E+02 -0.57942469969E+03  0.57981834168E+03  0.25500000000E-02 0.  1.
<mgrwt>
<rscale>  0 0.56001095E+02</rscale>
<asrwt>0</asrwt>
<pdfrwt beam="2">  1        2 0.10831677E+00 0.56001095E+02</pdfrwt>
<pdfrwt beam="1">  1       -2 0.17132100E-03 0.56001095E+02</pdfrwt>
<totfact> 0.83132584E+05</totfact>
</mgrwt>
</event>
<event>
 4    1  0.4834411E-002  0.1846282E+03  0.7818608E-02  0.1163398E+00
         -2   -1    0    0  501    0 -0.00000000000E+00  0.00000000000E+00  0.41180088670E+01  0.41180096565E+01  0.25500000000E-02 0.  1.
          2   -1    0    0    0  501  0.00000000000E+00 -0.00000000000E+00 -0.20694208547E+04  0.20694208547E+04  0.25500000000E-02 0.  1.
          2    1    1    2    0  502 -0.80142203060E+02  0.45746727613E+02 -0.10043316643E+04  0.10085621586E+04  0.25500000000E-02 0. -1.
         -2    1    1    2  502    0  0.80142203060E+02 -0.45746727613E+02 -0.10609711815E+04  0.10649767057E+04  0.25500000000E-02 0. -1.
<mgrwt>
<rscale>  0 0.18462821E+03</rscale>
<asrwt>0</asrwt>
<pdfrwt beam="2">  1        2 0.31837161E+00 0.18462821E+03</pdfrwt>
<pdfrwt beam="1">  1       -2 0.63354154E-03 0.18462821E+03</pdfrwt>
<totfact> 0.27730167E+04</totfact>
</mgrwt>
</event>
<event>
 4    1  0.4834411E-002  0.5126692E+02  0.7818608E-02  0.1438626E+00
          2   -1    0    0    0  501  0.00000000000E+00  0.00000000000E+00  0.53980416153E+03  0.53980416154E+03  0.25500000000E-02 0. -1.
         -2   -1    0    0  501    0 -0.00000000000E+00 -0.00000000000E+00 -0.12172443355E+01  0.12172470065E+01  0.25500000000E-02 0. -1.
          2    1    1    2    0  502 -0.11738654501E+02  0.17171291907E+02  0.42738653028E+03  0.42789238782E+03  0.25500000000E-02 0. -1.
         -2    1    1    2  502    0  0.11738654501E+02 -0.17171291907E+02  0.11120038691E+03  0.11312902073E+03  0.25500000000E-02 0. -1.
<mgrwt>
<rscale>  0 0.51266920E+02</rscale>
<asrwt>0</asrwt>
<pdfrwt beam="1">  1        2 0.83046866E-01 0.51266920E+02</pdfrwt>
<pdfrwt beam="2">  1       -2 0.18726840E-03 0.51266920E+02</pdfrwt>
<totfact> 0.96611005E+05</totfact>
</mgrwt>
</event>
<event>
 4    1  0.4834411E-002  0.5016792E+02  0.7818608E-02  0.1444438E+00
         -2   -1    0    0  501    0 -0.00000000000E+00  0.00000000000E+00  0.13737255997E+02  0.13737256234E+02  0.25500000000E-02 0.  1.
          2   -1    0    0    0  501  0.00000000000E+00 -0.00000000000E+00 -0.45802822610E+02  0.45802822681E+02  0.25500000000E-02 0.  1.
          2    1    1    2    0  502  0.51330073344E+01  0.24326783441E+02 -0.12084957998E+02  0.27643921089E+02  0.25500000000E-02 0. -1.
         -2    1    1    2  502    0 -0.51330073344E+01 -0.24326783441E+02 -0.19980608615E+02  0.31896157825E+02  0.25500000000E-02 0. -1.
<mgrwt>
<rscale>  0 0.50167922E+02</rscale>
<asrwt>0</asrwt>
<pdfrwt beam="2">  1        2 0.70465881E-02 0.50167922E+02</pdfrwt>
<pdfrwt beam="1">  1       -2 0.21134240E-02 0.50167922E+02</pdfrwt>
<totfact> 0.50031823E+05</totfact>
</mgrwt>
</event>
<event>
 4    1  0.4834411E-002  0.4929777E+02  0.7818608E-02  0.1449166E+00
          2   -1    0    0    0  501  0.00000000000E+00  0.00000000000E+00  0.23702064241E+03  0.23702064243E+03  0.25500000000E-02 0. -1.
         -2   -1    0    0  501    0 -0.00000000000E+00 -0.00000000000E+00 -0.25633524675E+01  0.25633537358E+01  0.25500000000E-02 0. -1.
          2    1    1    2    0  502  0.20969904832E+02 -0.13972386707E+01  0.17982159759E+03  0.18104556374E+03  0.25500000000E-02 0. -1.
         -2    1    1    2  502    0 -0.20969904832E+02  0.13972386707E+01  0.54635692359E+02  0.58538432424E+02  0.25500000000E-02 0. -1.
<mgrwt>
<rscale>  0 0.49297773E+02</rscale>
<asrwt>0</asrwt>
<pdfrwt beam="1">  1        2 0.36464711E-01 0.49297773E+02</pdfrwt>
<pdfrwt beam="2">  1       -2 0.39436205E-03 0.49297773E+02</pdfrwt>
<totfact> 0.80757417E+05</totfact>
</mgrwt>
</event>
<event>
 4    1  0.4834411E-002  0.1135143E+03  0.7818608E-02  0.1254197E+00
         -2   -1    0    0  501    0 -0.00000000000E+00  0.00000000000E+00  0.23756393845E+01  0.23756407530E+01  0.25500000000E-02 0. -1.
          2   -1    0    0    0  501  0.00000000000E+00 -0.00000000000E+00 -0.13560036753E+04  0.13560036753E+04  0.25500000000E-02 0. -1.
          2    1    1    2    0  502  0.19193296369E+02  0.25297611941E+02 -0.12397557652E+04  0.12401623721E+04  0.25500000000E-02 0.  1.
         -2    1    1    2  502    0 -0.19193296369E+02 -0.25297611941E+02 -0.11387227064E+03  0.11821694389E+03  0.25500000000E-02 0.  1.
<mgrwt>
<rscale>  0 0.11351435E+03</rscale>
<asrwt>0</asrwt>
<pdfrwt beam="2">  1        2 0.20861533E+00 0.11351435E+03</pdfrwt>
<pdfrwt beam="1">  1       -2 0.36548417E-03 0.11351435E+03</pdfrwt>
<totfact> 0.13586109E+05</totfact>
</mgrwt>
</event>
<event>
 4    1  0.4834411E-002  0.4567618E+02  0.7818608E-02  0.1470164E+00
          2   -1    0    0    0  501  0.00000000000E+00  0.00000000000E+00  0.33319637112E+00  0.33320612874E+00  0.25500000000E-02 0.  1.
         -2   -1    0    0  501    0 -0.00000000000E+00 -0.00000000000E+00 -0.15653553712E+04  0.15653553712E+04  0.25500000000E-02 0.  1.
          2    1    1    2    0  502  0.22637439702E+02 -0.26676018525E+01 -0.83109147078E+03  0.83140399481E+03  0.25500000000E-02 0. -1.
         -2    1    1    2  502    0 -0.22637439702E+02  0.26676018525E+01 -0.73393070404E+03  0.73428458252E+03  0.25500000000E-02 0. -1.
<mgrwt>
<rscale>  0 0.45676181E+02</rscale>
<asrwt>0</asrwt>
<pdfrwt beam="1">  1        2 0.51262984E-04 0.45676181E+02</pdfrwt>
<pdfrwt beam="2">  1       -2 0.24081802E+00 0.45676181E+02</pdfrwt>
<totfact> 0.56715390E+04</totfact>
</mgrwt>
</event>
<event>
 4    1  0.4834411E-002  0.4892656E+02  0.7818608E-02  0.1451219E+00
         -2   -1    0    0  501    0 -0.00000000000E+00  0.00000000000E+00  0.33521352402E+02  0.33521352499E+02  0.25500000000E-02 0.  1.
          2   -1    0    0    0  501  0.00000000000E+00 -0.00000000000E+00 -0.17852864188E+02  0.17852864370E+02  0.25500000000E-02 0.  1.
          2    1    1    2    0  502  0.23056026278E+02  0.81760982736E+01  0.79942545699E+01  0.25735909608E+02  0.25500000000E-02 0.  1.
         -2    1    1    2  502    0 -0.23056026278E+02 -0.81760982736E+01  0.76742336447E+01  0.25638307261E+02  0.25500000000E-02 0.  1.
<mgrwt>
<rscale>  0 0.48926564E+02</rscale>
<asrwt>0</asrwt>
<pdfrwt beam="2">  1        2 0.27465945E-02 0.48926564E+02</pdfrwt>
<pdfrwt beam="1">  1       -2 0.51571311E-02 0.48926564E+02</pdfrwt>
<totfact> 0.45837449E+05</totfact>
</mgrwt>
</event>
<event>
 4    1  0.4834411E-002  0.6398500E+02  0.7818608E-02  0.1381831E+00
          2   -1    0    0    0  501  0.00000000000E+00  0.00000000000E+00  0.18280534014E+03  0.18280534016E+03  0.25500000000E-02 0. -1.
         -2   -1    0    0  501    0 -0.00000000000E+00 -0.00000000000E+00 -0.55989611979E+01  0.55989617786E+01  0.25500000000E-02 0. -1.
          2    1    1    2    0  502 -0.31518824809E+02 -0.96117312577E+00  0.10450349768E+03  0.10915741480E+03  0.25500000000E-02 0. -1.
         -2    1    1    2  502    0  0.31518824809E+02  0.96117312577E+00  0.72702881263E+02  0.79246887141E+02  0.25500000000E-02 0. -1.
<mgrwt>
<rscale>  0 0.63985000E+02</rscale>
<asrwt>0</asrwt>
<pdfrwt beam="1">  1        2 0.28123897E-01 0.63985000E+02</pdfrwt>
<pdfrwt beam="2">  1       -2 0.86137875E-03 0.63985000E+02</pdfrwt>
<totfact> 0.38152134E+05</totfact>
</mgrwt>
</event>
<event>
 4    1  0.4834411E-002  0.4938995E+02  0.7818608E-02  0.1448660E+00
         -2   -1    0    0  501    0 -0.00000000000E+00  0.00000000000E+00  0.12303432246E+03  0.12303432249E+03  0.25500000000E-02 0.  1.
          2   -1    0    0    0  501  0.00000000000E+00 -0.00000000000E+00 -0.49566802530E+01  0.49566809090E+01  0.25500000000E-02 0.  1.
          2    1    1    2    0  502  0.14781801726E+02 -0.16572612983E+02  0.87032191150E+02  0.89820685069E+02  0.25500000000E-02 0.  1.
         -2    1    1    2  502    0 -0.14781801726E+02  0.16572612983E+02  0.31045451059E+02  0.38170318328E+02  0.25500000000E-02 0.  1.
<mgrwt>
<rscale>  0 0.49389952E+02</rscale>
<asrwt>0</asrwt>
<pdfrwt beam="2">  1        2 0.76256624E-03 0.49389952E+02</pdfrwt>
<pdfrwt beam="1">  1       -2 0.18928358E-01 0.49389952E+02</pdfrwt>
<totfact> 0.34388679E+05</totfact>
</mgrwt>
</event>
<event>
 4    1  0.4834411E-002  0.4846233E+02  0.7818608E-02  0.1453816E+00
         -2   -1    0    0  501    0 -0.00000000000E+00  0.00000000000E+00  0.57630493183E+02  0.57630493239E+02  0.25500000000E-02 0.  1.
          2   -1    0    0    0  501  0.00000000000E+00 -0.00000000000E+00 -0.10188170353E+02  0.10188170672E+02  0.25500000000E-02 0.  1.
          2    1    1    2    0  502  0.28787950782E+01 -0.23074961265E+02  0.33254419287E+02  0.40578291082E+02  0.25500000000E-02 0.  1.
         -2    1    1    2  502    0 -0.28787950782E+01  0.23074961265E+02  0.14187903542E+02  0.27240372830E+02  0.25500000000E-02 0.  1.
<mgrwt>
<rscale>  0 0.48462327E+02</rscale>
<asrwt>0</asrwt>
<pdfrwt beam="2">  1        2 0.15674108E-02 0.48462327E+02</pdfrwt>
<pdfrwt beam="1">  1       -2 0.88662298E-02 0.48462327E+02</pdfrwt>
<totfact> 0.42845718E+05</totfact>
</mgrwt>
</event>
<event>
 4    1  0.4834411E-002  0.7187294E+02  0.7818608E-02  0.1353837E+00
         -2   -1    0    0  501    0 -0.00000000000E+00  0.00000000000E+00  0.42549988254E+01  0.42549995895E+01  0.25500000000E-02 0. -1.
          2   -1    0    0    0  501  0.00000000000E+00 -0.00000000000E+00 -0.30350886947E+03  0.30350886948E+03  0.25500000000E-02 0. -1.
          2    1    1    2    0  502  0.18881231047E+02  0.30576603116E+02 -0.14953591296E+03  0.15379342904E+03  0.25500000000E-02 0. -1.
         -2    1    1    2  502    0 -0.18881231047E+02 -0.30576603116E+02 -0.14971795769E+03  0.15397044003E+03  0.25500000000E-02 0. -1.
<mgrwt>
<rscale>  0 0.71872944E+02</rscale>
<asrwt>0</asrwt>
<pdfrwt beam="2">  1        2 0.46693655E-01 0.71872944E+02</pdfrwt>
<pdfrwt beam="1">  1       -2 0.65461550E-03 0.71872944E+02</pdfrwt>
<totfact> 0.33748513E+05</totfact>
</mgrwt>
</event>
<event>
 4    1  0.4834411E-002  0.8256687E+02  0.7818608E-02  0.1321921E+00
          2   -1    0    0    0  501  0.00000000000E+00  0.00000000000E+00  0.69571960983E+03  0.69571960984E+03  0.25500000000E-02 0. -1.
         -2   -1    0    0  501    0 -0.00000000000E+00 -0.00000000000E+00 -0.24497247808E+01  0.24497261080E+01  0.25500000000E-02 0. -1.
          2    1    1    2    0  502  0.35092393603E+01  0.35456347477E+02  0.17030461081E+03  0.17399174637E+03  0.25500000000E-02 0. -1.
         -2    1    1    2  502    0 -0.35092393603E+01 -0.35456347477E+02  0.52296527425E+03  0.52417758957E+03  0.25500000000E-02 0. -1.
<mgrwt>
<rscale>  0 0.82566871E+02</rscale>
<asrwt>0</asrwt>
<pdfrwt beam="1">  1        2 0.10703361E+00 0.82566871E+02</pdfrwt>
<pdfrwt beam="2">  1       -2 0.37688148E-03 0.82566871E+02</pdfrwt>
<totfact> 0.30720776E+05</totfact>
</mgrwt>
</event>
<event>
 4    1  0.4834411E-002  0.4927374E+02  0.7818608E-02  0.1449299E+00
          2   -1    0    0    0  501  0.00000000000E+00  0.00000000000E+00  0.17018946308E+01  0.17018965412E+01  0.25500000000E-02 0.  1.
         -2   -1    0    0  501    0 -0.00000000000E+00 -0.00000000000E+00 -0.35664670000E+03  0.35664670001E+03  0.25500000000E-02 0.  1.
          2    1    1    2    0  502  0.14432549891E+02 -0.16942661142E+02 -0.10063594367E+03  0.10306767402E+03  0.25500000000E-02 0. -1.
         -2    1    1    2  502    0 -0.14432549891E+02  0.16942661142E+02 -0.25430886170E+03  0.25528092253E+03  0.25500000000E-02 0. -1.
<mgrwt>
<rscale>  0 0.49273743E+02</rscale>
<asrwt>0</asrwt>
<pdfrwt beam="1">  1        2 0.26183037E-03 0.49273743E+02</pdfrwt>
<pdfrwt beam="2">  1       -2 0.54868664E-01 0.49273743E+02</pdfrwt>
<totfact> 0.21750786E+05</totfact>
</mgrwt>
</event>
<event>
 4    1  0.4834411E-002  0.9630779E+02  0.7818608E-02  0.1288257E+00
         -2   -1    0    0  501    0 -0.00000000000E+00  0.00000000000E+00  0.40558289727E+01  0.40558297743E+01  0.25500000000E-02 0.  1.
          2   -1    0    0    0  501  0.00000000000E+00 -0.00000000000E+00 -0.57171966256E+03  0.57171966256E+03  0.25500000000E-02 0.  1.
          2    1    1    2    0  502 -0.42973589464E+01  0.32952621958E+02 -0.75487217049E+02  0.82478254905E+02  0.25500000000E-02 0. -1.
         -2    1    1    2  502    0  0.42973589464E+01 -0.32952621958E+02 -0.49217661653E+03  0.49329723743E+03  0.25500000000E-02 0. -1.
<mgrwt>
<rscale>  0 0.96307786E+02</rscale>
<asrwt>0</asrwt>
<pdfrwt beam="2">  1        2 0.87956807E-01 0.96307786E+02</pdfrwt>
<pdfrwt beam="1">  1       -2 0.62397421E-03 0.96307786E+02</pdfrwt>
<totfact> 0.19433036E+05</totfact>
</mgrwt>
</event>
<event>
 4    1  0.4834411E-002  0.2589532E+03  0.7818608E-02  0.1107774E+00
         -2   -1    0    0  501    0 -0.00000000000E+00  0.00000000000E+00  0.39280031428E+02  0.39280031510E+02  0.25500000000E-02 0. -1.
          2   -1    0    0    0  501  0.00000000000E+00 -0.00000000000E+00 -0.42678671397E+03  0.42678671397E+03  0.25500000000E-02 0. -1.
          2    1    1    2    0  502 -0.17688858592E+02  0.10084406102E+03 -0.33640208676E+03  0.35163729090E+03  0.25500000000E-02 0. -1.
         -2    1    1    2  502    0  0.17688858592E+02 -0.10084406102E+03 -0.51104595775E+02  0.11442945459E+03  0.25500000000E-02 0. -1.
<mgrwt>
<rscale>  0 0.25895324E+03</rscale>
<asrwt>0</asrwt>
<pdfrwt beam="2">  1        2 0.65659492E-01 0.25895324E+03</pdfrwt>
<pdfrwt beam="1">  1       -2 0.60430820E-02 0.25895324E+03</pdfrwt>
<totfact> 0.10768705E+04</totfact>
</mgrwt>
</event>
<event>
 4    1  0.4834411E-002  0.4316860E+02  0.7818608E-02  0.1486110E+00
          2   -1    0    0    0  501  0.00000000000E+00  0.00000000000E+00  0.55189774099E+03  0.55189774100E+03  0.25500000000E-02 0.  1.
         -2   -1    0    0  501    0 -0.00000000000E+00 -0.00000000000E+00 -0.84414374031E+00  0.84414759183E+00  0.25500000000E-02 0.  1.
          2    1    1    2    0  502  0.20606525452E+02  0.61102482008E+01  0.25018194191E+03  0.25110350075E+03  0.25500000000E-02 0.  1.
         -2    1    1    2  502    0 -0.20606525452E+02 -0.61102482008E+01  0.30087165534E+03  0.30163838784E+03  0.25500000000E-02 0.  1.
<mgrwt>
<rscale>  0 0.43168604E+02</rscale>
<asrwt>0</asrwt>
<pdfrwt beam="1">  1        2 0.84907267E-01 0.43168604E+02</pdfrwt>
<pdfrwt beam="2">  1       -2 0.12986868E-03 0.43168604E+02</pdfrwt>
<totfact> 0.14827490E+06</totfact>
</mgrwt>
</event>
<event>
 4    1  0.4834411E-002  0.4288022E+02  0.7818608E-02  0.1488026E+00
         -2   -1    0    0  501    0 -0.00000000000E+00  0.00000000000E+00  0.31684251858E+02  0.31684251960E+02  0.25500000000E-02 0.  1.
          2   -1    0    0    0  501  0.00000000000E+00 -0.00000000000E+00 -0.14508100257E+02  0.14508100481E+02  0.25500000000E-02 0.  1.
          2    1    1    2    0  502 -0.44157414172E+01 -0.20784082329E+02  0.11673099322E+02  0.24243310517E+02  0.25500000000E-02 0.  1.
         -2    1    1    2  502    0  0.44157414172E+01  0.20784082329E+02  0.55030522788E+01  0.21949041925E+02  0.25500000000E-02 0.  1.
<mgrwt>
<rscale>  0 0.42880220E+02</rscale>
<asrwt>0</asrwt>
<pdfrwt beam="2">  1        2 0.22320155E-02 0.42880220E+02</pdfrwt>
<pdfrwt beam="1">  1       -2 0.48745003E-02 0.42880220E+02</pdfrwt>
<totfact> 0.63062301E+05</totfact>
</mgrwt>
</event>
<event>
 4    1  0.4834411E-002  0.4722110E+02  0.7818608E-02  0.1460934E+00
         -2   -1    0    0  501    0 -0.00000000000E+00  0.00000000000E+00  0.57184469136E+00  0.57185037688E+00  0.25500000000E-02 0.  1.
          2   -1    0    0    0  501  0.00000000000E+00 -0.00000000000E+00 -0.97483699993E+03  0.97483699993E+03  0.25500000000E-02 0.  1.
          2    1    1    2    0  502  0.20710060943E+02  0.35855802083E+01 -0.26495097770E+03  0.26578333958E+03  0.25500000000E-02 0. -1.
         -2    1    1    2  502    0 -0.20710060943E+02 -0.35855802083E+01 -0.70931417754E+03  0.70962551072E+03  0.25500000000E-02 0. -1.
<mgrwt>
<rscale>  0 0.47221103E+02</rscale>
<asrwt>0</asrwt>
<pdfrwt beam="2">  1        2 0.14997359E+00 0.47221103E+02</pdfrwt>
<pdfrwt beam="1">  1       -2 0.87977324E-04 0.47221103E+02</pdfrwt>
<totfact> 0.13308765E+06</totfact>
</mgrwt>
</event>
<event>
 4    1  0.4834411E-002  0.7180992E+02  0.7818608E-02  0.1354044E+00
          2   -1    0    0    0  501  0.00000000000E+00  0.00000000000E+00  0.14422030122E+04  0.14422030122E+04  0.25500000000E-02 0.  1.
         -2   -1    0    0  501    0 -0.00000000000E+00 -0.00000000000E+00 -0.89388496526E+00  0.89388860246E+00  0.25500000000E-02 0.  1.
          2    1    1    2    0  502 -0.24875137374E+02  0.12634861440E+02  0.26648613631E+03  0.26794266744E+03  0.25500000000E-02 0.  1.
         -2    1    1    2  502    0  0.24875137374E+02 -0.12634861440E+02  0.11748229909E+04  0.11751542333E+04  0.25500000000E-02 0.  1.
<mgrwt>
<rscale>  0 0.71809922E+02</rscale>
<asrwt>0</asrwt>
<pdfrwt beam="1">  1        2 0.22187687E+00 0.71809922E+02</pdfrwt>
<pdfrwt beam="2">  1       -2 0.13752137E-03 0.71809922E+02</pdfrwt>
<totfact> 0.44544613E+05</totfact>
</mgrwt>
</event>
<event>
 4    1  0.4834411E-002  0.7281441E+02  0.7818608E-02  0.1350776E+00
          2   -1    0    0    0  501  0.00000000000E+00  0.00000000000E+00  0.51343028205E+03  0.51343028205E+03  0.25500000000E-02 0. -1.
         -2   -1    0    0  501    0 -0.00000000000E+00 -0.00000000000E+00 -0.25816244721E+01  0.25816257314E+01  0.25500000000E-02 0. -1.
          2    1    1    2    0  502 -0.23519137266E+02  0.10236246471E+02  0.72325493243E+02  0.76739217737E+02  0.25500000000E-02 0. -1.
         -2    1    1    2  502    0  0.23519137266E+02 -0.10236246471E+02  0.43852316433E+03  0.43927269005E+03  0.25500000000E-02 0. -1.
<mgrwt>
<rscale>  0 0.72814408E+02</rscale>
<asrwt>0</asrwt>
<pdfrwt beam="1">  1        2 0.78989261E-01 0.72814408E+02</pdfrwt>
<pdfrwt beam="2">  1       -2 0.39717316E-03 0.72814408E+02</pdfrwt>
<totfact> 0.39129409E+05</totfact>
</mgrwt>
</event>
<event>
 4    1  0.4834411E-002  0.9193084E+02  0.7818608E-02  0.1298242E+00
         -2   -1    0    0  501    0 -0.00000000000E+00  0.00000000000E+00  0.87071134071E+02  0.87071134108E+02  0.25500000000E-02 0.  1.
          2   -1    0    0    0  501  0.00000000000E+00 -0.00000000000E+00 -0.24265443406E+02  0.24265443540E+02  0.25500000000E-02 0.  1.
          2    1    1    2    0  502 -0.27986577863E+02 -0.35011968527E+02  0.43737742660E+02  0.62626484974E+02  0.25500000000E-02 0. -1.
         -2    1    1    2  502    0  0.27986577863E+02  0.35011968527E+02  0.19067948005E+02  0.48710092674E+02  0.25500000000E-02 0. -1.
<mgrwt>
<rscale>  0 0.91930837E+02</rscale>
<asrwt>0</asrwt>
<pdfrwt beam="2">  1        2 0.37331451E-02 0.91930837E+02</pdfrwt>
<pdfrwt beam="1">  1       -2 0.13395559E-01 0.91930837E+02</pdfrwt>
<totfact> 0.81411211E+04</totfact>
</mgrwt>
</event>
<event>
 4    1  0.4834411E-002  0.8465363E+02  0.7818608E-02  0.1316341E+00
          2   -1    0    0    0  501  0.00000000000E+00  0.00000000000E+00  0.16269822690E+03  0.16269822692E+03  0.25500000000E-02 0. -1.
         -2   -1    0    0  501    0 -0.00000000000E+00 -0.00000000000E+00 -0.11011548543E+02  0.11011548838E+02  0.25500000000E-02 0. -1.
          2    1    1    2    0  502 -0.40722164818E+02  0.10618788412E+02  0.85135567301E+02  0.94969038117E+02  0.25500000000E-02 0. -1.
         -2    1    1    2  502    0  0.40722164818E+02 -0.10618788412E+02  0.66551111055E+02  0.78740737639E+02  0.25500000000E-02 0. -1.
<mgrwt>
<rscale>  0 0.84653634E+02</rscale>
<asrwt>0</asrwt>
<pdfrwt beam="1">  1        2 0.25030496E-01 0.84653634E+02</pdfrwt>
<pdfrwt beam="2">  1       -2 0.16940844E-02 0.84653634E+02</pdfrwt>
<totfact> 0.17557982E+05</totfact>
</mgrwt>
</event>
<event>
 4    1  0.4834411E-002  0.6203413E+02  0.7818608E-02  0.1389488E+00
          2   -1    0    0    0  501  0.00000000000E+00  0.00000000000E+00  0.16203065757E+04  0.16203065757E+04  0.25500000000E-02 0. -1.
         -2   -1    0    0  501    0 -0.00000000000E+00 -0.00000000000E+00 -0.59374814037E+00  0.59375361616E+00  0.25500000000E-02 0. -1.
          2    1    1    2    0  502 -0.61709517905E+01  0.30161079592E+02  0.71109271688E+03  0.71175882388E+03  0.25500000000E-02 0.  1.
         -2    1    1    2  502    0  0.61709517905E+01 -0.30161079592E+02  0.90862011070E+03  0.90914150546E+03  0.25500000000E-02 0.  1.
<mgrwt>
<rscale>  0 0.62034134E+02</rscale>
<asrwt>0</asrwt>
<pdfrwt beam="1">  1        2 0.24927441E+00 0.62034134E+02</pdfrwt>
<pdfrwt beam="2">  1       -2 0.91347579E-04 0.62034134E+02</pdfrwt>
<totfact> 0.61772877E+05</totfact>
</mgrwt>
</event>
<event>
 4    1  0.4834411E-002  0.6280266E+02  0.7818608E-02  0.1386433E+00
         -2   -1    0    0  501    0 -0.00000000000E+00  0.00000000000E+00  0.51835192516E+01  0.51835198788E+01  0.25500000000E-02 0. -1.
          2   -1    0    0    0  501  0.00000000000E+00 -0.00000000000E+00 -0.19022662660E+03  0.19022662662E+03  0.25500000000E-02 0. -1.
          2    1    1    2    0  502  0.24312218410E+02 -0.85063977317E+01 -0.14840738595E+03  0.15062601029E+03  0.25500000000E-02 0.  1.
         -2    1    1    2  502    0 -0.24312218410E+02  0.85063977317E+01 -0.36635721401E+02  0.44784136204E+02  0.25500000000E-02 0.  1.
<mgrwt>
<rscale>  0 0.62802657E+02</rscale>
<asrwt>0</asrwt>
<pdfrwt beam="2">  1        2 0.29265630E-01 0.62802657E+02</pdfrwt>
<pdfrwt beam="1">  1       -2 0.79746470E-03 0.62802657E+02</pdfrwt>
<totfact> 0.40574023E+05</totfact>
</mgrwt>
</event>
<event>
 4    1  0.4834411E-002  0.6714151E+02  0.7818608E-02  0.1370092E+00
          2   -1    0    0    0  501  0.00000000000E+00  0.00000000000E+00  0.15114704905E+03  0.15114704907E+03  0.25500000000E-02 0.  1.
         -2   -1    0    0  501    0 -0.00000000000E+00 -0.00000000000E+00 -0.74562858565E+01  0.74562862925E+01  0.25500000000E-02 0.  1.
          2    1    1    2    0  502  0.29225801895E+02  0.16297614578E+02  0.65491086576E+02  0.73544830987E+02  0.25500000000E-02 0.  1.
         -2    1    1    2  502    0 -0.29225801895E+02 -0.16297614578E+02  0.78199676613E+02  0.85058504374E+02  0.25500000000E-02 0.  1.
<mgrwt>
<rscale>  0 0.67141511E+02</rscale>
<asrwt>0</asrwt>
<pdfrwt beam="1">  1        2 0.23253390E-01 0.67141511E+02</pdfrwt>
<pdfrwt beam="2">  1       -2 0.11471210E-02 0.67141511E+02</pdfrwt>
<totfact> 0.31634156E+05</totfact>
</mgrwt>
</event>
<event>
 4    1  0.4834411E-002  0.6214729E+02  0.7818608E-02  0.1389035E+00
         -2   -1    0    0  501    0 -0.00000000000E+00  0.00000000000E+00  0.12710700892E+02  0.12710701148E+02  0.25500000000E-02 0. -1.
          2   -1    0    0    0  501  0.00000000000E+00 -0.00000000000E+00 -0.75965232166E+02  0.75965232209E+02  0.25500000000E-02 0. -1.
          2    1    1    2    0  502  0.21231150867E+02 -0.18280700010E+02 -0.50803937014E+02  0.58017116290E+02  0.25500000000E-02 0.  1.
         -2    1    1    2  502    0 -0.21231150867E+02  0.18280700010E+02 -0.12450594261E+02  0.30658817067E+02  0.25500000000E-02 0.  1.
<mgrwt>
<rscale>  0 0.62147288E+02</rscale>
<asrwt>0</asrwt>
<pdfrwt beam="2">  1        2 0.11686959E-01 0.62147288E+02</pdfrwt>
<pdfrwt beam="1">  1       -2 0.19554925E-02 0.62147288E+02</pdfrwt>
<totfact> 0.31899320E+05</totfact>
</mgrwt>
</event>
<event>
 4    1  0.4834411E-002  0.1030811E+03  0.7818608E-02  0.1273947E+00
          2   -1    0    0    0  501  0.00000000000E+00  0.00000000000E+00  0.26581021901E+02  0.26581022024E+02  0.25500000000E-02 0. -1.
         -2   -1    0    0  501    0 -0.00000000000E+00 -0.00000000000E+00 -0.99936944566E+02  0.99936944599E+02  0.25500000000E-02 0. -1.
          2    1    1    2    0  502 -0.47590698898E+02 -0.34976007044E+01 -0.60582216981E+02  0.77118822949E+02  0.25500000000E-02 0. -1.
         -2    1    1    2  502    0  0.47590698898E+02  0.34976007044E+01 -0.12773705684E+02  0.49399143673E+02  0.25500000000E-02 0. -1.
<mgrwt>
<rscale>  0 0.10308106E+03</rscale>
<asrwt>0</asrwt>
<pdfrwt beam="1">  1        2 0.40893880E-02 0.10308106E+03</pdfrwt>
<pdfrwt beam="2">  1       -2 0.15374914E-01 0.10308106E+03</pdfrwt>
<totfact> 0.58841012E+04</totfact>
</mgrwt>
</event>
<event>
 4    1  0.4834411E-002  0.5145738E+02  0.7818608E-02  0.1437636E+00
          2   -1    0    0    0  501  0.00000000000E+00  0.00000000000E+00  0.41130213027E+03  0.41130213028E+03  0.25500000000E-02 0.  1.
         -2   -1    0    0  501    0 -0.00000000000E+00 -0.00000000000E+00 -0.16094376828E+01  0.16094397029E+01  0.25500000000E-02 0.  1.
          2    1    1    2    0  502  0.14279108176E+02  0.20615597264E+02  0.25099138365E+03  0.25224109589E+03  0.25500000000E-02 0.  1.
         -2    1    1    2  502    0 -0.14279108176E+02 -0.20615597264E+02  0.15870130894E+03  0.16067047409E+03  0.25500000000E-02 0.  1.
<mgrwt>
<rscale>  0 0.51457383E+02</rscale>
<asrwt>0</asrwt>
<pdfrwt beam="1">  1        2 0.63277255E-01 0.51457383E+02</pdfrwt>
<pdfrwt beam="2">  1       -2 0.24760594E-03 0.51457383E+02</pdfrwt>
<totfact> 0.87801016E+05</totfact>
</mgrwt>
</event>
<event>
 4    1  0.4834411E-002  0.7153970E+02  0.7818608E-02  0.1354934E+00
         -2   -1    0    0  501    0 -0.00000000000E+00  0.00000000000E+00  0.23333887604E+01  0.23333901538E+01  0.25500000000E-02 0.  1.
          2   -1    0    0    0  501  0.00000000000E+00 -0.00000000000E+00 -0.54833628359E+03  0.54833628359E+03  0.25500000000E-02 0.  1.
          2    1    1    2    0  502 -0.30047042901E+02 -0.11659395024E+02 -0.39242675621E+03  0.39374804797E+03  0.25500000000E-02 0.  1.
         -2    1    1    2  502    0  0.30047042901E+02  0.11659395024E+02 -0.15357613861E+03  0.15692162578E+03  0.25500000000E-02 0.  1.
<mgrwt>
<rscale>  0 0.71539698E+02</rscale>
<asrwt>0</asrwt>
<pdfrwt beam="2">  1        2 0.84359326E-01 0.71539698E+02</pdfrwt>
<pdfrwt beam="1">  1       -2 0.35898343E-03 0.71539698E+02</pdfrwt>
<totfact> 0.41788066E+05</totfact>
</mgrwt>
</event>
<event>
 4    1  0.4834411E-002  0.5494617E+02  0.7818608E-02  0.1420354E+00
          2   -1    0    0    0  501  0.00000000000E+00  0.00000000000E+00  0.16205323035E+04  0.16205323035E+04  0.25500000000E-02 0. -1.
         -2   -1    0    0  501    0 -0.00000000000E+00 -0.00000000000E+00 -0.46575115932E+00  0.46575813993E+00  0.25500000000E-02 0. -1.
          2    1    1    2    0  502  0.19610659370E+01  0.22928551744E+02  0.36730708806E+03  0.36802725607E+03  0.25500000000E-02 0.  1.
         -2    1    1    2  502    0 -0.19610659370E+01 -0.22928551744E+02  0.12527594643E+04  0.12529708056E+04  0.25500000000E-02 0.  1.
<mgrwt>
<rscale>  0 0.54946172E+02</rscale>
<asrwt>0</asrwt>
<pdfrwt beam="1">  1        2 0.24931793E+00 0.54946172E+02</pdfrwt>
<pdfrwt beam="2">  1       -2 0.71653049E-04 0.54946172E+02</pdfrwt>
<totfact> 0.83872356E+05</totfact>
</mgrwt>
</event>
<event>
 4    1  0.4834411E-002  0.7136833E+02  0.7818608E-02  0.1355501E+00
         -2   -1    0    0  501    0 -0.00000000000E+00  0.00000000000E+00  0.70964638221E+00  0.70965096370E+00  0.25500000000E-02 0.  1.
          2   -1    0    0    0  501  0.00000000000E+00 -0.00000000000E+00 -0.17943523201E+04  0.17943523201E+04  0.25500000000E-02 0.  1.
          2    1    1    2    0  502 -0.26360726008E+02  0.24008375669E+02 -0.93300679316E+03  0.93368783117E+03  0.25500000000E-02 0.  1.
         -2    1    1    2  502    0  0.26360726008E+02 -0.24008375669E+02 -0.86063588053E+03  0.86137413987E+03  0.25500000000E-02 0.  1.
<mgrwt>
<rscale>  0 0.71368333E+02</rscale>
<asrwt>0</asrwt>
<pdfrwt beam="2">  1        2 0.27605057E+00 0.71368333E+02</pdfrwt>
<pdfrwt beam="1">  1       -2 0.10917816E-03 0.71368333E+02</pdfrwt>
<totfact> 0.40690600E+05</totfact>
</mgrwt>
</event>
<event>
 4    1  0.4834411E-002  0.4044476E+02  0.7818608E-02  0.1504964E+00
         -2   -1    0    0  501    0 -0.00000000000E+00  0.00000000000E+00  0.13944087992E+01  0.13944111308E+01  0.25500000000E-02 0.  1.
          2   -1    0    0    0  501  0.00000000000E+00 -0.00000000000E+00 -0.29327435172E+03  0.29327435173E+03  0.25500000000E-02 0.  1.
          2    1    1    2    0  502 -0.38375238367E+01 -0.19718891936E+02 -0.12903557699E+03  0.13058997444E+03  0.25500000000E-02 0. -1.
         -2    1    1    2  502    0  0.38375238367E+01  0.19718891936E+02 -0.16284436593E+03  0.16407878843E+03  0.25500000000E-02 0. -1.
<mgrwt>
<rscale>  0 0.40444761E+02</rscale>
<asrwt>0</asrwt>
<pdfrwt beam="2">  1        2 0.45119082E-01 0.40444761E+02</pdfrwt>
<pdfrwt beam="1">  1       -2 0.21452484E-03 0.40444761E+02</pdfrwt>
<totfact> 0.14133099E+06</totfact>
</mgrwt>
</event>
<event>
 4    1  0.4834411E-002  0.8107674E+02  0.7818608E-02  0.1326023E+00
         -2   -1    0    0  501    0 -0.00000000000E+00  0.00000000000E+00  0.48886371478E+01  0.48886378128E+01  0.25500000000E-02 0.  1.
          2   -1    0    0    0  501  0.00000000000E+00 -0.00000000000E+00 -0.33615895316E+03  0.33615895317E+03  0.25500000000E-02 0.  1.
          2    1    1    2    0  502 -0.12647284758E+02 -0.37853859777E+02 -0.19552506831E+03  0.19955681110E+03  0.25500000000E-02 0.  1.
         -2    1    1    2  502    0  0.12647284758E+02  0.37853859777E+02 -0.13574524770E+03  0.14149077988E+03  0.25500000000E-02 0.  1.
<mgrwt>
<rscale>  0 0.81076736E+02</rscale>
<asrwt>0</asrwt>
<pdfrwt beam="2">  1        2 0.51716744E-01 0.81076736E+02</pdfrwt>
<pdfrwt beam="1">  1       -2 0.75209834E-03 0.81076736E+02</pdfrwt>
<totfact> 0.25563094E+05</totfact>
</mgrwt>
</event>
<event>
 4    1  0.4834411E-002  0.9891967E+02  0.7818608E-02  0.1282584E+00
         -2   -1    0    0  501    0 -0.00000000000E+00  0.00000000000E+00  0.14309906440E+01  0.14309929160E+01  0.25500000000E-02 0. -1.
          2   -1    0    0    0  501  0.00000000000E+00 -0.00000000000E+00 -0.17094964765E+04  0.17094964765E+04  0.25500000000E-02 0. -1.
          2    1    1    2    0  502  0.23957577227E+02  0.53627790821E+01 -0.11139597470E+03  0.11406922500E+03  0.25500000000E-02 0. -1.
         -2    1    1    2  502    0 -0.23957577227E+02 -0.53627790821E+01 -0.15966695112E+04  0.15968582444E+04  0.25500000000E-02 0. -1.
<mgrwt>
<rscale>  0 0.98919673E+02</rscale>
<asrwt>0</asrwt>
<pdfrwt beam="2">  1        2 0.26299782E+00 0.98919673E+02</pdfrwt>
<pdfrwt beam="1">  1       -2 0.22015395E-03 0.98919673E+02</pdfrwt>
<totfact> 0.17855865E+05</totfact>
</mgrwt>
</event>
<event>
 4    1  0.4834411E-002  0.5330482E+02  0.7818608E-02  0.1428290E+00
          2   -1    0    0    0  501  0.00000000000E+00  0.00000000000E+00  0.10815881644E+02  0.10815881944E+02  0.25500000000E-02 0. -1.
         -2   -1    0    0  501    0 -0.00000000000E+00 -0.00000000000E+00 -0.65676659468E+02  0.65676659517E+02  0.25500000000E-02 0. -1.
          2    1    1    2    0  502  0.25141109528E+02  0.81314136348E+01 -0.32433529440E+02  0.41834544511E+02  0.25500000000E-02 0. -1.
         -2    1    1    2  502    0 -0.25141109528E+02 -0.81314136348E+01 -0.22427248385E+02  0.34657996951E+02  0.25500000000E-02 0. -1.
<mgrwt>
<rscale>  0 0.53304821E+02</rscale>
<asrwt>0</asrwt>
<pdfrwt beam="1">  1        2 0.16639819E-02 0.53304821E+02</pdfrwt>
<pdfrwt beam="2">  1       -2 0.10104101E-01 0.53304821E+02</pdfrwt>
<totfact> 0.33193941E+05</totfact>
</mgrwt>
</event>
<event>
 4    1  0.4834411E-002  0.9322270E+02  0.7818608E-02  0.1295230E+00
          2   -1    0    0    0  501  0.00000000000E+00  0.00000000000E+00  0.20238293050E+04  0.20238293050E+04  0.25500000000E-02 0. -1.
         -2   -1    0    0  501    0 -0.00000000000E+00 -0.00000000000E+00 -0.10735169455E+01  0.10735199741E+01  0.25500000000E-02 0. -1.
          2    1    1    2    0  502  0.35886907827E+01  0.26048656954E+02  0.17540854784E+03  0.17736845800E+03  0.25500000000E-02 0.  1.
         -2    1    1    2  502    0 -0.35886907827E+01 -0.26048656954E+02  0.18473472402E+04  0.18475343670E+04  0.25500000000E-02 0.  1.
<mgrwt>
<rscale>  0 0.93222704E+02</rscale>
<asrwt>0</asrwt>
<pdfrwt beam="1">  1        2 0.31135452E+00 0.93222704E+02</pdfrwt>
<pdfrwt beam="2">  1       -2 0.16515872E-03 0.93222704E+02</pdfrwt>
<totfact> 0.18351867E+05</totfact>
</mgrwt>
</event>
<event>
 4    1  0.4834411E-002  0.4645767E+02  0.7818608E-02  0.1465442E+00
          2   -1    0    0    0  501  0.00000000000E+00  0.00000000000E+00  0.20652497033E+04  0.20652497033E+04  0.25500000000E-02 0.  1.
         -2   -1    0    0  501    0 -0.00000000000E+00 -0.00000000000E+00 -0.26125944755E+00  0.26127189178E+00  0.25500000000E-02 0.  1.
          2    1    1    2    0  502  0.20533663138E+02  0.59044211291E+01  0.14377528165E+04  0.14379115602E+04  0.25500000000E-02 0. -1.
         -2    1    1    2  502    0 -0.20533663138E+02 -0.59044211291E+01  0.62723562733E+03  0.62759941500E+03  0.25500000000E-02 0. -1.
<mgrwt>
<rscale>  0 0.46457673E+02</rscale>
<asrwt>0</asrwt>
<pdfrwt beam="1">  1        2 0.31773901E+00 0.46457673E+02</pdfrwt>
<pdfrwt beam="2">  1       -2 0.40193670E-04 0.46457673E+02</pdfrwt>
<totfact> 0.10724393E+06</totfact>
</mgrwt>
</event>
<event>
 4    1  0.4834411E-002  0.4952159E+02  0.7818608E-02  0.1447939E+00
         -2   -1    0    0  501    0 -0.00000000000E+00  0.00000000000E+00  0.17604018034E+01  0.17604036502E+01  0.25500000000E-02 0. -1.
          2   -1    0    0    0  501  0.00000000000E+00 -0.00000000000E+00 -0.34827087630E+03  0.34827087631E+03  0.25500000000E-02 0. -1.
          2    1    1    2    0  502 -0.35074817441E+01 -0.20288540498E+02 -0.27047130344E+03  0.27125385397E+03  0.25500000000E-02 0.  1.
         -2    1    1    2  502    0  0.35074817441E+01  0.20288540498E+02 -0.76039171059E+02  0.78777425990E+02  0.25500000000E-02 0.  1.
<mgrwt>
<rscale>  0 0.49521591E+02</rscale>
<asrwt>0</asrwt>
<pdfrwt beam="2">  1        2 0.53580080E-01 0.49521591E+02</pdfrwt>
<pdfrwt beam="1">  1       -2 0.27083147E-03 0.49521591E+02</pdfrwt>
<totfact> 0.91245940E+05</totfact>
</mgrwt>
</event>
<event>
 4    1  0.4834411E-002  0.5270468E+02  0.7818608E-02  0.1431276E+00
         -2   -1    0    0  501    0 -0.00000000000E+00  0.00000000000E+00  0.21815971723E+02  0.21815971872E+02  0.25500000000E-02 0. -1.
          2   -1    0    0    0  501  0.00000000000E+00 -0.00000000000E+00 -0.31831995463E+02  0.31831995565E+02  0.25500000000E-02 0. -1.
          2    1    1    2    0  502 -0.77861243519E+01 -0.20047628034E+02  0.10493293986E+02  0.23929904877E+02  0.25500000000E-02 0.  1.
         -2    1    1    2  502    0  0.77861243519E+01  0.20047628034E+02 -0.20509317726E+02  0.29718062560E+02  0.25500000000E-02 0.  1.
<mgrwt>
<rscale>  0 0.52704684E+02</rscale>
<asrwt>0</asrwt>
<pdfrwt beam="2">  1        2 0.48972301E-02 0.52704684E+02</pdfrwt>
<pdfrwt beam="1">  1       -2 0.33563033E-02 0.52704684E+02</pdfrwt>
<totfact> 0.41280645E+05</totfact>
</mgrwt>
</event>
<event>
 4    1  0.4834411E-002  0.5077350E+02  0.7818608E-02  0.1441214E+00
          2   -1    0    0    0  501  0.00000000000E+00  0.00000000000E+00  0.65676798566E+03  0.65676798566E+03  0.25500000000E-02 0. -1.
         -2   -1    0    0  501    0 -0.00000000000E+00 -0.00000000000E+00 -0.98129946174E+00  0.98130277495E+00  0.25500000000E-02 0. -1.
          2    1    1    2    0  502 -0.22319276537E+02 -0.99458268882E+01  0.23868757455E+03  0.23993504919E+03  0.25500000000E-02 0. -1.
         -2    1    1    2  502    0  0.22319276537E+02  0.99458268882E+01  0.41709911165E+03  0.41781423925E+03  0.25500000000E-02 0. -1.
<mgrwt>
<rscale>  0 0.50773503E+02</rscale>
<asrwt>0</asrwt>
<pdfrwt beam="1">  1        2 0.10104096E+00 0.50773503E+02</pdfrwt>
<pdfrwt beam="2">  1       -2 0.15096980E-03 0.50773503E+02</pdfrwt>
<totfact> 0.10437404E+06</totfact>
</mgrwt>
</event>
<event>
 4    1  0.4834411E-002  0.5156819E+02  0.7818608E-02  0.1437062E+00
         -2   -1    0    0  501    0 -0.00000000000E+00  0.00000000000E+00  0.87125448619E+00  0.87125821787E+00  0.25500000000E-02 0. -1.
          2   -1    0    0    0  501  0.00000000000E+00 -0.00000000000E+00 -0.76305836448E+03  0.76305836449E+03  0.25500000000E-02 0. -1.
          2    1    1    2    0  502 -0.20138274418E+02 -0.35881580135E+01 -0.61362782917E+03  0.61396867812E+03  0.25500000000E-02 0.  1.
         -2    1    1    2  502    0  0.20138274418E+02  0.35881580135E+01 -0.14855928082E+03  0.14996094458E+03  0.25500000000E-02 0.  1.
<mgrwt>
<rscale>  0 0.51568186E+02</rscale>
<asrwt>0</asrwt>
<pdfrwt beam="2">  1        2 0.11739306E+00 0.51568186E+02</pdfrwt>
<pdfrwt beam="1">  1       -2 0.13404005E-03 0.51568186E+02</pdfrwt>
<totfact> 0.10378144E+06</totfact>
</mgrwt>
</event>
<event>
 4    1  0.4834411E-002  0.6908369E+02  0.7818608E-02  0.1363237E+00
         -2   -1    0    0  501    0 -0.00000000000E+00  0.00000000000E+00  0.73597559416E+00  0.73598001175E+00  0.25500000000E-02 0.  1.
          2   -1    0    0    0  501  0.00000000000E+00 -0.00000000000E+00 -0.16211618699E+04  0.16211618699E+04  0.25500000000E-02 0.  1.
          2    1    1    2    0  502 -0.25579433508E+02 -0.78580081699E+01 -0.13230095307E+04  0.13232801193E+04  0.25500000000E-02 0. -1.
         -2    1    1    2  502    0  0.25579433508E+02  0.78580081699E+01 -0.29741636354E+03  0.29861773059E+03  0.25500000000E-02 0. -1.
<mgrwt>
<rscale>  0 0.69083693E+02</rscale>
<asrwt>0</asrwt>
<pdfrwt beam="2">  1        2 0.24940666E+00 0.69083693E+02</pdfrwt>
<pdfrwt beam="1">  1       -2 0.11322865E-03 0.69083693E+02</pdfrwt>
<totfact> 0.46936670E+05</totfact>
</mgrwt>
</event>
<event>
 4    1  0.4834411E-002  0.5401333E+02  0.7818608E-02  0.1424823E+00
         -2   -1    0    0  501    0 -0.00000000000E+00  0.00000000000E+00  0.47791833524E+00  0.47792513813E+00  0.25500000000E-02 0.  1.
          2   -1    0    0    0  501  0.00000000000E+00 -0.00000000000E+00 -0.15261073681E+04  0.15261073681E+04  0.25500000000E-02 0.  1.
          2    1    1    2    0  502  0.47361207808E+01 -0.24919326608E+02 -0.10248493905E+04  0.10251632441E+04  0.25500000000E-02 0.  1.
         -2    1    1    2  502    0 -0.47361207808E+01  0.24919326608E+02 -0.50078005919E+03  0.50142204915E+03  0.25500000000E-02 0.  1.
<mgrwt>
<rscale>  0 0.54013328E+02</rscale>
<asrwt>0</asrwt>
<pdfrwt beam="2">  1        2 0.23478185E+00 0.54013328E+02</pdfrwt>
<pdfrwt beam="1">  1       -2 0.73527643E-04 0.54013328E+02</pdfrwt>
<totfact> 0.89862344E+05</totfact>
</mgrwt>
</event>
<event>
 4    1  0.4834411E-002  0.8545232E+02  0.7818608E-02  0.1314254E+00
          2   -1    0    0    0  501  0.00000000000E+00  0.00000000000E+00  0.49234131401E+01  0.49234138005E+01  0.25500000000E-02 0.  1.
         -2   -1    0    0  501    0 -0.00000000000E+00 -0.00000000000E+00 -0.37078433752E+03  0.37078433753E+03  0.25500000000E-02 0.  1.
          2    1    1    2    0  502  0.39091979082E+02 -0.15086419597E+02 -0.14621300291E+03  0.15209873474E+03  0.25500000000E-02 0. -1.
         -2    1    1    2  502    0 -0.39091979082E+02  0.15086419597E+02 -0.21964792147E+03  0.22360901658E+03  0.25500000000E-02 0. -1.
<mgrwt>
<rscale>  0 0.85452317E+02</rscale>
<asrwt>0</asrwt>
<pdfrwt beam="1">  1        2 0.75744852E-03 0.85452317E+02</pdfrwt>
<pdfrwt beam="2">  1       -2 0.57043722E-01 0.85452317E+02</pdfrwt>
<totfact> 0.53047158E+04</totfact>
</mgrwt>
</event>
<event>
 4    1  0.4834411E-002  0.6601671E+02  0.7818608E-02  0.1374187E+00
         -2   -1    0    0  501    0 -0.00000000000E+00  0.00000000000E+00  0.10643113952E+01  0.10643144500E+01  0.25500000000E-02 0.  1.
          2   -1    0    0    0  501  0.00000000000E+00 -0.00000000000E+00 -0.10237133853E+04  0.10237133853E+04  0.25500000000E-02 0.  1.
          2    1    1    2    0  502 -0.18026662952E+02 -0.25812501183E+02 -0.35741521948E+03  0.35879922647E+03  0.25500000000E-02 0. -1.
         -2    1    1    2  502    0  0.18026662952E+02  0.25812501183E+02 -0.66523385444E+03  0.66597847329E+03  0.25500000000E-02 0. -1.
<mgrwt>
<rscale>  0 0.66016707E+02</rscale>
<asrwt>0</asrwt>
<pdfrwt beam="2">  1        2 0.15749358E+00 0.66016707E+02</pdfrwt>
<pdfrwt beam="1">  1       -2 0.16374127E-03 0.66016707E+02</pdfrwt>
<totfact> 0.57740098E+05</totfact>
</mgrwt>
</event>
<event>
 4    1  0.4834411E-002  0.4790408E+02  0.7818608E-02  0.1456986E+00
         -2   -1    0    0  501    0 -0.00000000000E+00  0.00000000000E+00  0.10324084699E+01  0.10324116191E+01  0.25500000000E-02 0. -1.
          2   -1    0    0    0  501  0.00000000000E+00 -0.00000000000E+00 -0.55569030813E+03  0.55569030814E+03  0.25500000000E-02 0. -1.
          2    1    1    2    0  502  0.14463712476E+02  0.16239513678E+02 -0.39399713983E+03  0.39459684107E+03  0.25500000000E-02 0. -1.
         -2    1    1    2  502    0 -0.14463712476E+02 -0.16239513678E+02 -0.16066075983E+03  0.16212587868E+03  0.25500000000E-02 0. -1.
<mgrwt>
<rscale>  0 0.47904082E+02</rscale>
<asrwt>0</asrwt>
<pdfrwt beam="2">  1        2 0.85490578E-01 0.47904082E+02</pdfrwt>
<pdfrwt beam="1">  1       -2 0.15883276E-03 0.47904082E+02</pdfrwt>
<totfact> 0.11520794E+06</totfact>
</mgrwt>
</event>
<event>
 4    1  0.4834411E-002  0.1515368E+03  0.7818608E-02  0.1198597E+00
         -2   -1    0    0  501    0 -0.00000000000E+00  0.00000000000E+00  0.99745484309E+01  0.99745487569E+01  0.25500000000E-02 0. -1.
          2   -1    0    0    0  501  0.00000000000E+00 -0.00000000000E+00 -0.57554977003E+03  0.57554977003E+03  0.25500000000E-02 0. -1.
          2    1    1    2    0  502 -0.25599705797E+01 -0.54376182122E+02 -0.79150943477E+02  0.96063491980E+02  0.25500000000E-02 0.  1.
         -2    1    1    2  502    0  0.25599705797E+01  0.54376182122E+02 -0.48642427812E+03  0.48946082681E+03  0.25500000000E-02 0.  1.
<mgrwt>
<rscale>  0 0.15153678E+03</rscale>
<asrwt>0</asrwt>
<pdfrwt beam="2">  1        2 0.88546093E-01 0.15153678E+03</pdfrwt>
<pdfrwt beam="1">  1       -2 0.15345464E-02 0.15153678E+03</pdfrwt>
<totfact> 0.56734040E+04</totfact>
</mgrwt>
</event>
<event>
 4    1  0.4834411E-002  0.4399316E+02  0.7818608E-02  0.1480727E+00
          2   -1    0    0    0  501  0.00000000000E+00  0.00000000000E+00  0.52842249515E+02  0.52842249577E+02  0.25500000000E-02 0.  1.
         -2   -1    0    0  501    0 -0.00000000000E+00 -0.00000000000E+00 -0.91564892616E+01  0.91564896167E+01  0.25500000000E-02 0.  1.
          2    1    1    2    0  502 -0.16156396918E+02 -0.12755400300E+02  0.32770046462E+02  0.38698906313E+02  0.25500000000E-02 0. -1.
         -2    1    1    2  502    0  0.16156396918E+02  0.12755400300E+02  0.10915713792E+02  0.23299832881E+02  0.25500000000E-02 0. -1.
<mgrwt>
<rscale>  0 0.43993159E+02</rscale>
<asrwt>0</asrwt>
<pdfrwt beam="1">  1        2 0.81295769E-02 0.43993159E+02</pdfrwt>
<pdfrwt beam="2">  1       -2 0.14086907E-02 0.43993159E+02</pdfrwt>
<totfact> 0.71813630E+05</totfact>
</mgrwt>
</event>
<event>
 4    1  0.4834411E-002  0.5193627E+02  0.7818608E-02  0.1435169E+00
         -2   -1    0    0  501    0 -0.00000000000E+00  0.00000000000E+00  0.47092786195E+00  0.47093476582E+00  0.25500000000E-02 0.  1.
          2   -1    0    0    0  501  0.00000000000E+00 -0.00000000000E+00 -0.14319369868E+04  0.14319369868E+04  0.25500000000E-02 0.  1.
          2    1    1    2    0  502 -0.45514602521E+01 -0.22712518771E+02 -0.10394554499E+04  0.10397135214E+04  0.25500000000E-02 0.  1.
         -2    1    1    2  502    0  0.45514602521E+01  0.22712518771E+02 -0.39201060903E+03  0.39269440014E+03  0.25500000000E-02 0.  1.
<mgrwt>
<rscale>  0 0.51936267E+02</rscale>
<asrwt>0</asrwt>
<pdfrwt beam="2">  1        2 0.22029451E+00 0.51936267E+02</pdfrwt>
<pdfrwt beam="1">  1       -2 0.72452118E-04 0.51936267E+02</pdfrwt>
<totfact> 0.10127519E+06</totfact>
</mgrwt>
</event>
<event>
 4    1  0.4834411E-002  0.5094481E+02  0.7818608E-02  0.1440311E+00
         -2   -1    0    0  501    0 -0.00000000000E+00  0.00000000000E+00  0.91044771151E+00  0.91045128255E+00  0.25500000000E-02 0.  1.
          2   -1    0    0    0  501  0.00000000000E+00 -0.00000000000E+00 -0.71266276975E+03  0.71266276976E+03  0.25500000000E-02 0.  1.
          2    1    1    2    0  502  0.43750327093E+01  0.22881576795E+02 -0.50017735243E+03  0.50071957357E+03  0.25500000000E-02 0. -1.
         -2    1    1    2  502    0 -0.43750327093E+01 -0.22881576795E+02 -0.21157496961E+03  0.21285364747E+03  0.25500000000E-02 0. -1.
<mgrwt>
<rscale>  0 0.50944812E+02</rscale>
<asrwt>0</asrwt>
<pdfrwt beam="2">  1        2 0.10963998E+00 0.50944812E+02</pdfrwt>
<pdfrwt beam="1">  1       -2 0.14006972E-03 0.50944812E+02</pdfrwt>
<totfact> 0.10547756E+06</totfact>
</mgrwt>
</event>
<event>
 4    1  0.4834411E-002  0.4066417E+02  0.7818608E-02  0.1503380E+00
          2   -1    0    0    0  501  0.00000000000E+00  0.00000000000E+00  0.61132899150E+02  0.61132899203E+02  0.25500000000E-02 0.  1.
         -2   -1    0    0  501    0 -0.00000000000E+00 -0.00000000000E+00 -0.67622111970E+01  0.67622116778E+01  0.25500000000E-02 0.  1.
          2    1    1    2    0  502  0.19367526507E+02 -0.59439632213E+01  0.24311885903E+02  0.31646478231E+02  0.25500000000E-02 0.  1.
         -2    1    1    2  502    0 -0.19367526507E+02  0.59439632213E+01  0.30058802050E+02  0.36248632650E+02  0.25500000000E-02 0.  1.
<mgrwt>
<rscale>  0 0.40664166E+02</rscale>
<asrwt>0</asrwt>
<pdfrwt beam="1">  1        2 0.94050612E-02 0.40664166E+02</pdfrwt>
<pdfrwt beam="2">  1       -2 0.10403403E-02 0.40664166E+02</pdfrwt>
<totfact> 0.89907409E+05</totfact>
</mgrwt>
</event>
<event>
 4    1  0.4834411E-002  0.5015151E+02  0.7818608E-02  0.1444526E+00
          2   -1    0    0    0  501  0.00000000000E+00  0.00000000000E+00  0.66120221006E+02  0.66120221055E+02  0.25500000000E-02 0. -1.
         -2   -1    0    0  501    0 -0.00000000000E+00 -0.00000000000E+00 -0.95098506572E+01  0.95098509991E+01  0.25500000000E-02 0. -1.
          2    1    1    2    0  502  0.19948446423E+02  0.69281213092E+01  0.48697325718E+02  0.53078893340E+02  0.25500000000E-02 0.  1.
         -2    1    1    2  502    0 -0.19948446423E+02 -0.69281213092E+01  0.79130446304E+01  0.22551178714E+02  0.25500000000E-02 0.  1.
<mgrwt>
<rscale>  0 0.50151508E+02</rscale>
<asrwt>0</asrwt>
<pdfrwt beam="1">  1        2 0.10172342E-01 0.50151508E+02</pdfrwt>
<pdfrwt beam="2">  1       -2 0.14630539E-02 0.50151508E+02</pdfrwt>
<totfact> 0.53862178E+05</totfact>
</mgrwt>
</event>
<event>
 4    1  0.4834411E-002  0.5482174E+02  0.7818608E-02  0.1420944E+00
         -2   -1    0    0  501    0 -0.00000000000E+00  0.00000000000E+00  0.54305149267E+00  0.54305747964E+00  0.25500000000E-02 0. -1.
          2   -1    0    0    0  501  0.00000000000E+00 -0.00000000000E+00 -0.13835735580E+04  0.13835735580E+04  0.25500000000E-02 0. -1.
          2    1    1    2    0  502 -0.25266352898E+01 -0.23669303152E+02 -0.10346744601E+04  0.10349482393E+04  0.25500000000E-02 0. -1.
         -2    1    1    2  502    0  0.25266352898E+01  0.23669303152E+02 -0.34835604646E+03  0.34916837616E+03  0.25500000000E-02 0. -1.
<mgrwt>
<rscale>  0 0.54821741E+02</rscale>
<asrwt>0</asrwt>
<pdfrwt beam="2">  1        2 0.21285465E+00 0.54821741E+02</pdfrwt>
<pdfrwt beam="1">  1       -2 0.83547952E-04 0.54821741E+02</pdfrwt>
<totfact> 0.89371491E+05</totfact>
</mgrwt>
</event>
<event>
 4    1  0.4834411E-002  0.5049178E+02  0.7818608E-02  0.1442707E+00
          2   -1    0    0    0  501  0.00000000000E+00  0.00000000000E+00  0.92849833591E+03  0.92849833592E+03  0.25500000000E-02 0. -1.
         -2   -1    0    0  501    0 -0.00000000000E+00 -0.00000000000E+00 -0.68643382763E+00  0.68643856405E+00  0.25500000000E-02 0. -1.
          2    1    1    2    0  502  0.94965808522E+01 -0.22800488803E+02  0.36773971825E+03  0.36856824025E+03  0.25500000000E-02 0.  1.
         -2    1    1    2  502    0 -0.94965808522E+01  0.22800488803E+02  0.56007218383E+03  0.56061653423E+03  0.25500000000E-02 0.  1.
<mgrwt>
<rscale>  0 0.50491776E+02</rscale>
<asrwt>0</asrwt>
<pdfrwt beam="1">  1        2 0.14284556E+00 0.50491776E+02</pdfrwt>
<pdfrwt beam="2">  1       -2 0.10560582E-03 0.50491776E+02</pdfrwt>
<totfact> 0.11245192E+06</totfact>
</mgrwt>
</event>
<event>
 4    1  0.4834411E-002  0.5257625E+02  0.7818608E-02  0.1431921E+00
          2   -1    0    0    0  501  0.00000000000E+00  0.00000000000E+00  0.15152890482E+03  0.15152890485E+03  0.25500000000E-02 0. -1.
         -2   -1    0    0  501    0 -0.00000000000E+00 -0.00000000000E+00 -0.45606177706E+01  0.45606184835E+01  0.25500000000E-02 0. -1.
          2    1    1    2    0  502  0.72757228083E+00  0.23535142590E+02  0.10818676085E+03  0.11071949931E+03  0.25500000000E-02 0.  1.
         -2    1    1    2  502    0 -0.72757228083E+00 -0.23535142590E+02  0.38781526206E+02  0.45370024019E+02  0.25500000000E-02 0.  1.
<mgrwt>
<rscale>  0 0.52576248E+02</rscale>
<asrwt>0</asrwt>
<pdfrwt beam="1">  1        2 0.23312137E-01 0.52576248E+02</pdfrwt>
<pdfrwt beam="2">  1       -2 0.70163362E-03 0.52576248E+02</pdfrwt>
<totfact> 0.59349808E+05</totfact>
</mgrwt>
</event>
<event>
 4    1  0.4834411E-002  0.5610346E+02  0.7818608E-02  0.1414951E+00
          2   -1    0    0    0  501  0.00000000000E+00  0.00000000000E+00  0.32704336036E+03  0.32704336037E+03  0.25500000000E-02 0.  1.
         -2   -1    0    0  501    0 -0.00000000000E+00 -0.00000000000E+00 -0.24061011040E+01  0.24061024552E+01  0.25500000000E-02 0.  1.
          2    1    1    2    0  502  0.17431055402E+02 -0.21336233085E+02  0.13134431589E+03  0.13420285339E+03  0.25500000000E-02 0. -1.
         -2    1    1    2  502    0 -0.17431055402E+02  0.21336233085E+02  0.19329294336E+03  0.19524660943E+03  0.25500000000E-02 0. -1.
<mgrwt>
<rscale>  0 0.56103462E+02</rscale>
<asrwt>0</asrwt>
<pdfrwt beam="1">  1        2 0.50314336E-01 0.56103462E+02</pdfrwt>
<pdfrwt beam="2">  1       -2 0.37016970E-03 0.56103462E+02</pdfrwt>
<totfact> 0.65331661E+05</totfact>
</mgrwt>
</event>
<event>
 4    1  0.4834411E-002  0.5405866E+02  0.7818608E-02  0.1424604E+00
         -2   -1    0    0  501    0 -0.00000000000E+00  0.00000000000E+00  0.11719350384E+03  0.11719350387E+03  0.25500000000E-02 0. -1.
          2   -1    0    0    0  501  0.00000000000E+00 -0.00000000000E+00 -0.62340035385E+01  0.62340040601E+01  0.25500000000E-02 0. -1.
          2    1    1    2    0  502 -0.24168674052E+02 -0.44365963428E+01  0.29771877978E+02  0.38602757899E+02  0.25500000000E-02 0. -1.
         -2    1    1    2  502    0  0.24168674052E+02  0.44365963428E+01  0.81187622328E+02  0.84824750034E+02  0.25500000000E-02 0. -1.
<mgrwt>
<rscale>  0 0.54058663E+02</rscale>
<asrwt>0</asrwt>
<pdfrwt beam="2">  1        2 0.95907761E-03 0.54058663E+02</pdfrwt>
<pdfrwt beam="1">  1       -2 0.18029768E-01 0.54058663E+02</pdfrwt>
<totfact> 0.27943337E+05</totfact>
</mgrwt>
</event>
<event>
 4    1  0.4834411E-002  0.4260292E+02  0.7818608E-02  0.1489886E+00
          2   -1    0    0    0  501  0.00000000000E+00  0.00000000000E+00  0.17039806994E+04  0.17039806994E+04  0.25500000000E-02 0.  1.
         -2   -1    0    0  501    0 -0.00000000000E+00 -0.00000000000E+00 -0.26628346859E+00  0.26629567805E+00  0.25500000000E-02 0.  1.
          2    1    1    2    0  502 -0.18573134708E+02 -0.98771915109E+01  0.71779000691E+03  0.71809819263E+03  0.25500000000E-02 0.  1.
         -2    1    1    2  502    0  0.18573134708E+02  0.98771915109E+01  0.98592440900E+03  0.98614880242E+03  0.25500000000E-02 0.  1.
<mgrwt>
<rscale>  0 0.42602925E+02</rscale>
<asrwt>0</asrwt>
<pdfrwt beam="1">  1        2 0.26214602E+00 0.42602925E+02</pdfrwt>
<pdfrwt beam="2">  1       -2 0.40968386E-04 0.42602925E+02</pdfrwt>
<totfact> 0.15333725E+06</totfact>
</mgrwt>
</event>
<event>
 4    1  0.4834411E-002  0.8559866E+02  0.7818608E-02  0.1313874E+00
          2   -1    0    0    0  501  0.00000000000E+00  0.00000000000E+00  0.12178063109E+04  0.12178063109E+04  0.25500000000E-02 0.  1.
         -2   -1    0    0  501    0 -0.00000000000E+00 -0.00000000000E+00 -0.15041648851E+01  0.15041670466E+01  0.25500000000E-02 0.  1.
          2    1    1    2    0  502  0.13856081545E+02  0.27548750389E+02  0.18538482139E+03  0.18793205328E+03  0.25500000000E-02 0.  1.
         -2    1    1    2  502    0 -0.13856081545E+02 -0.27548750389E+02  0.10309173247E+04  0.10313784247E+04  0.25500000000E-02 0.  1.
<mgrwt>
<rscale>  0 0.85598664E+02</rscale>
<asrwt>0</asrwt>
<pdfrwt beam="1">  1        2 0.18735578E+00 0.85598664E+02</pdfrwt>
<pdfrwt beam="2">  1       -2 0.23140896E-03 0.85598664E+02</pdfrwt>
<totfact> 0.29300090E+05</totfact>
</mgrwt>
</event>
<event>
 4    1  0.4834411E-002  0.4927918E+02  0.7818608E-02  0.1449269E+00
          2   -1    0    0    0  501  0.00000000000E+00  0.00000000000E+00  0.43249179666E+03  0.43249179666E+03  0.25500000000E-02 0.  1.
         -2   -1    0    0  501    0 -0.00000000000E+00 -0.00000000000E+00 -0.14037468344E+01  0.14037491505E+01  0.25500000000E-02 0.  1.
          2    1    1    2    0  502  0.16778252468E+02 -0.18038605002E+02  0.21956410656E+03  0.22094184285E+03  0.25500000000E-02 0.  1.
         -2    1    1    2  502    0 -0.16778252468E+02  0.18038605002E+02  0.21152394326E+03  0.21295370296E+03  0.25500000000E-02 0.  1.
<mgrwt>
<rscale>  0 0.49279184E+02</rscale>
<asrwt>0</asrwt>
<pdfrwt beam="1">  1        2 0.66537249E-01 0.49279184E+02</pdfrwt>
<pdfrwt beam="2">  1       -2 0.21596107E-03 0.49279184E+02</pdfrwt>
<totfact> 0.99395477E+05</totfact>
</mgrwt>
</event>
<event>
 4    1  0.4834411E-002  0.6268213E+02  0.7818608E-02  0.1386909E+00
          2   -1    0    0    0  501  0.00000000000E+00  0.00000000000E+00  0.41803737777E+03  0.41803737778E+03  0.25500000000E-02 0.  1.
         -2   -1    0    0  501    0 -0.00000000000E+00 -0.00000000000E+00 -0.23496991214E+01  0.23497005051E+01  0.25500000000E-02 0.  1.
          2    1    1    2    0  502 -0.14433060262E+02 -0.23538634238E+02  0.10839487381E+03  0.11185628818E+03  0.25500000000E-02 0. -1.
         -2    1    1    2  502    0  0.14433060262E+02  0.23538634238E+02  0.30729280484E+03  0.30853079010E+03  0.25500000000E-02 0. -1.
<mgrwt>
<rscale>  0 0.62682130E+02</rscale>
<asrwt>0</asrwt>
<pdfrwt beam="1">  1        2 0.64313473E-01 0.62682130E+02</pdfrwt>
<pdfrwt beam="2">  1       -2 0.36149211E-03 0.62682130E+02</pdfrwt>
<totfact> 0.53719079E+05</totfact>
</mgrwt>
</event>
<event>
 4    1  0.4834411E-002  0.4385081E+02  0.7818608E-02  0.1481646E+00
         -2   -1    0    0  501    0 -0.00000000000E+00  0.00000000000E+00  0.19413659007E+01  0.19413675754E+01  0.25500000000E-02 0.  1.
          2   -1    0    0    0  501  0.00000000000E+00 -0.00000000000E+00 -0.24762115412E+03  0.24762115414E+03  0.25500000000E-02 0.  1.
          2    1    1    2    0  502 -0.15287516592E+02 -0.14960331068E+02 -0.15025445280E+03  0.15176929947E+03  0.25500000000E-02 0. -1.
         -2    1    1    2  502    0  0.15287516592E+02  0.14960331068E+02 -0.95425335424E+02  0.97793222242E+02  0.25500000000E-02 0. -1.
<mgrwt>
<rscale>  0 0.43850814E+02</rscale>
<asrwt>0</asrwt>
<pdfrwt beam="2">  1        2 0.38095537E-01 0.43850814E+02</pdfrwt>
<pdfrwt beam="1">  1       -2 0.29867200E-03 0.43850814E+02</pdfrwt>
<totfact> 0.10951400E+06</totfact>
</mgrwt>
</event>
<event>
 4    1  0.4834411E-002  0.9736618E+02  0.7818608E-02  0.1285934E+00
         -2   -1    0    0  501    0 -0.00000000000E+00  0.00000000000E+00  0.11316552557E+03  0.11316552559E+03  0.25500000000E-02 0. -1.
          2   -1    0    0    0  501  0.00000000000E+00 -0.00000000000E+00 -0.20943156547E+02  0.20943156703E+02  0.25500000000E-02 0. -1.
          2    1    1    2    0  502 -0.12280693267E+02 -0.47045297332E+02  0.42746383722E+02  0.64740472318E+02  0.25500000000E-02 0. -1.
         -2    1    1    2  502    0  0.12280693267E+02  0.47045297332E+02  0.49475985297E+02  0.69368209979E+02  0.25500000000E-02 0. -1.
<mgrwt>
<rscale>  0 0.97366182E+02</rscale>
<asrwt>0</asrwt>
<pdfrwt beam="2">  1        2 0.32220241E-02 0.97366182E+02</pdfrwt>
<pdfrwt beam="1">  1       -2 0.17410081E-01 0.97366182E+02</pdfrwt>
<totfact> 0.65187741E+04</totfact>
</mgrwt>
</event>
<event>
 4    1  0.4834411E-002  0.4674217E+02  0.7818608E-02  0.1463750E+00
          2   -1    0    0    0  501  0.00000000000E+00  0.00000000000E+00  0.12496343031E+03  0.12496343033E+03  0.25500000000E-02 0.  1.
         -2   -1    0    0  501    0 -0.00000000000E+00 -0.00000000000E+00 -0.43709392048E+01  0.43709399486E+01  0.25500000000E-02 0.  1.
          2    1    1    2    0  502 -0.13298987043E+02  0.19044521058E+02  0.67432014258E+02  0.71320637912E+02  0.25500000000E-02 0.  1.
         -2    1    1    2  502    0  0.13298987043E+02 -0.19044521058E+02  0.53160476843E+02  0.58013732369E+02  0.25500000000E-02 0.  1.
<mgrwt>
<rscale>  0 0.46742170E+02</rscale>
<asrwt>0</asrwt>
<pdfrwt beam="1">  1        2 0.19225143E-01 0.46742170E+02</pdfrwt>
<pdfrwt beam="2">  1       -2 0.67245227E-03 0.46742170E+02</pdfrwt>
<totfact> 0.75354564E+05</totfact>
</mgrwt>
</event>
<event>
 4    1  0.4834411E-002  0.5669903E+02  0.7818608E-02  0.1412231E+00
         -2   -1    0    0  501    0 -0.00000000000E+00  0.00000000000E+00  0.38285052960E+01  0.38285061452E+01  0.25500000000E-02 0. -1.
          2   -1    0    0    0  501  0.00000000000E+00 -0.00000000000E+00 -0.20992394706E+03  0.20992394708E+03  0.25500000000E-02 0. -1.
          2    1    1    2    0  502  0.11991867476E+02  0.17816108041E+02 -0.17281484449E+03  0.17414416176E+03  0.25500000000E-02 0. -1.
         -2    1    1    2  502    0 -0.11991867476E+02 -0.17816108041E+02 -0.33280597274E+02  0.39608291464E+02  0.25500000000E-02 0. -1.
<mgrwt>
<rscale>  0 0.56699031E+02</rscale>
<asrwt>0</asrwt>
<pdfrwt beam="2">  1        2 0.32295983E-01 0.56699031E+02</pdfrwt>
<pdfrwt beam="1">  1       -2 0.58900105E-03 0.56699031E+02</pdfrwt>
<totfact> 0.54488978E+05</totfact>
</mgrwt>
</event>
<event>
 4    1  0.4834411E-002  0.5584327E+02  0.7818608E-02  0.1416153E+00
         -2   -1    0    0  501    0 -0.00000000000E+00  0.00000000000E+00  0.28648486698E+01  0.28648498046E+01  0.25500000000E-02 0. -1.
          2   -1    0    0    0  501  0.00000000000E+00 -0.00000000000E+00 -0.27213221938E+03  0.27213221940E+03  0.25500000000E-02 0. -1.
          2    1    1    2    0  502  0.25144129970E+02  0.26177484243E+01 -0.76255051259E+02  0.80336247907E+02  0.25500000000E-02 0. -1.
         -2    1    1    2  502    0 -0.25144129970E+02 -0.26177484243E+01 -0.19301231945E+03  0.19466082129E+03  0.25500000000E-02 0. -1.
<mgrwt>
<rscale>  0 0.55843273E+02</rscale>
<asrwt>0</asrwt>
<pdfrwt beam="2">  1        2 0.41866475E-01 0.55843273E+02</pdfrwt>
<pdfrwt beam="1">  1       -2 0.44074625E-03 0.55843273E+02</pdfrwt>
<totfact> 0.61958073E+05</totfact>
</mgrwt>
</event>
<event>
 4    1  0.4834411E-002  0.5976089E+02  0.7818608E-02  0.1398838E+00
         -2   -1    0    0  501    0 -0.00000000000E+00  0.00000000000E+00  0.21674558110E+03  0.21674558111E+03  0.25500000000E-02 0.  1.
          2   -1    0    0    0  501  0.00000000000E+00 -0.00000000000E+00 -0.41193032639E+01  0.41193040532E+01  0.25500000000E-02 0.  1.
          2    1    1    2    0  502 -0.13982098941E+02 -0.22944012987E+02  0.15462997820E+03  0.15694698782E+03  0.25500000000E-02 0.  1.
         -2    1    1    2  502    0  0.13982098941E+02  0.22944012987E+02  0.57996299636E+02  0.63917897343E+02  0.25500000000E-02 0.  1.
<mgrwt>
<rscale>  0 0.59760886E+02</rscale>
<asrwt>0</asrwt>
<pdfrwt beam="2">  1        2 0.63373914E-03 0.59760886E+02</pdfrwt>
<pdfrwt beam="1">  1       -2 0.33345468E-01 0.59760886E+02</pdfrwt>
<totfact> 0.17517629E+05</totfact>
</mgrwt>
</event>
<event>
 4    1  0.4834411E-002  0.4418126E+02  0.7818608E-02  0.1479519E+00
          2   -1    0    0    0  501  0.00000000000E+00  0.00000000000E+00  0.10187773244E+03  0.10187773247E+03  0.25500000000E-02 0. -1.
         -2   -1    0    0  501    0 -0.00000000000E+00 -0.00000000000E+00 -0.47900146683E+01  0.47900153470E+01  0.25500000000E-02 0. -1.
          2    1    1    2    0  502  0.19264018564E+02 -0.99306784742E+01  0.38222790029E+02  0.43939759561E+02  0.25500000000E-02 0. -1.
         -2    1    1    2  502    0 -0.19264018564E+02  0.99306784742E+01  0.58864927744E+02  0.62727988259E+02  0.25500000000E-02 0. -1.
<mgrwt>
<rscale>  0 0.44181257E+02</rscale>
<asrwt>0</asrwt>
<pdfrwt beam="1">  1        2 0.15673496E-01 0.44181257E+02</pdfrwt>
<pdfrwt beam="2">  1       -2 0.73692547E-03 0.44181257E+02</pdfrwt>
<totfact> 0.82088356E+05</totfact>
</mgrwt>
</event>
<event>
 4    1  0.4834411E-002  0.4892216E+02  0.7818608E-02  0.1451243E+00
          2   -1    0    0    0  501  0.00000000000E+00  0.00000000000E+00  0.25822543036E+03  0.25822543037E+03  0.25500000000E-02 0. -1.
         -2   -1    0    0  501    0 -0.00000000000E+00 -0.00000000000E+00 -0.23171394396E+01  0.23171408427E+01  0.25500000000E-02 0. -1.
          2    1    1    2    0  502  0.16289051247E+02  0.16609698523E+02  0.16820751433E+03  0.16980866632E+03  0.25500000000E-02 0.  1.
         -2    1    1    2  502    0 -0.16289051247E+02 -0.16609698523E+02  0.87700776594E+02  0.90733904893E+02  0.25500000000E-02 0.  1.
<mgrwt>
<rscale>  0 0.48922163E+02</rscale>
<asrwt>0</asrwt>
<pdfrwt beam="1">  1        2 0.39726990E-01 0.48922163E+02</pdfrwt>
<pdfrwt beam="2">  1       -2 0.35648310E-03 0.48922163E+02</pdfrwt>
<totfact> 0.84765766E+05</totfact>
</mgrwt>
</event>
<event>
 4    1  0.4834411E-002  0.5973597E+02  0.7818608E-02  0.1398943E+00
         -2   -1    0    0  501    0 -0.00000000000E+00  0.00000000000E+00  0.23121814137E+02  0.23121814278E+02  0.25500000000E-02 0.  1.
          2   -1    0    0    0  501  0.00000000000E+00 -0.00000000000E+00 -0.38582458134E+02  0.38582458218E+02  0.25500000000E-02 0.  1.
          2    1    1    2    0  502 -0.26240015586E+02 -0.13349273092E+01 -0.22403158192E+02  0.34528567192E+02  0.25500000000E-02 0. -1.
         -2    1    1    2  502    0  0.26240015586E+02  0.13349273092E+01  0.69425141951E+01  0.27175705303E+02  0.25500000000E-02 0. -1.
<mgrwt>
<rscale>  0 0.59735967E+02</rscale>
<asrwt>0</asrwt>
<pdfrwt beam="2">  1        2 0.59357628E-02 0.59735967E+02</pdfrwt>
<pdfrwt beam="1">  1       -2 0.35572022E-02 0.59735967E+02</pdfrwt>
<totfact> 0.30642432E+05</totfact>
</mgrwt>
</event>
<event>
 4    1  0.4834411E-002  0.5335966E+02  0.7818608E-02  0.1428019E+00
         -2   -1    0    0  501    0 -0.00000000000E+00  0.00000000000E+00  0.15978930754E+03  0.15978930756E+03  0.25500000000E-02 0. -1.
          2   -1    0    0    0  501  0.00000000000E+00 -0.00000000000E+00 -0.44546989507E+01  0.44546996805E+01  0.25500000000E-02 0. -1.
          2    1    1    2    0  502  0.23841299008E+02 -0.10509327135E+02  0.59995988021E+02  0.65409266013E+02  0.25500000000E-02 0.  1.
         -2    1    1    2  502    0 -0.23841299008E+02  0.10509327135E+02  0.95338620570E+02  0.98834741230E+02  0.25500000000E-02 0.  1.
<mgrwt>
<rscale>  0 0.53359660E+02</rscale>
<asrwt>0</asrwt>
<pdfrwt beam="2">  1        2 0.68533826E-03 0.53359660E+02</pdfrwt>
<pdfrwt beam="1">  1       -2 0.24582974E-01 0.53359660E+02</pdfrwt>
<totfact> 0.26163664E+05</totfact>
</mgrwt>
</event>
<event>
 4    1  0.4834411E-002  0.8644410E+02  0.7818608E-02  0.1311699E+00
          2   -1    0    0    0  501  0.00000000000E+00  0.00000000000E+00  0.13107503583E+04  0.13107503583E+04  0.25500000000E-02 0.  1.
         -2   -1    0    0  501    0 -0.00000000000E+00 -0.00000000000E+00 -0.14252478254E+01  0.14252501065E+01  0.25500000000E-02 0.  1.
          2    1    1    2    0  502 -0.32746231492E+02  0.10130130972E+02  0.10543211221E+04  0.10548781748E+04  0.25500000000E-02 0.  1.
         -2    1    1    2  502    0  0.32746231492E+02 -0.10130130972E+02  0.25500398841E+03  0.25729743361E+03  0.25500000000E-02 0.  1.
<mgrwt>
<rscale>  0 0.86444100E+02</rscale>
<asrwt>0</asrwt>
<pdfrwt beam="1">  1        2 0.20165407E+00 0.86444100E+02</pdfrwt>
<pdfrwt beam="2">  1       -2 0.21926889E-03 0.86444100E+02</pdfrwt>
<totfact> 0.28216012E+05</totfact>
</mgrwt>
</event>
<event>
 4    1  0.4834411E-002  0.5725039E+02  0.7818608E-02  0.1409747E+00
         -2   -1    0    0  501    0 -0.00000000000E+00  0.00000000000E+00  0.10969013893E+02  0.10969014189E+02  0.25500000000E-02 0.  1.
          2   -1    0    0    0  501  0.00000000000E+00 -0.00000000000E+00 -0.74701505619E+02  0.74701505663E+02  0.25500000000E-02 0.  1.
          2    1    1    2    0  502  0.20853754278E+02 -0.18698666795E+02 -0.23028170727E+02  0.36260389696E+02  0.25500000000E-02 0.  1.
         -2    1    1    2  502    0 -0.20853754278E+02  0.18698666795E+02 -0.40704321000E+02  0.49410130155E+02  0.25500000000E-02 0.  1.
<mgrwt>
<rscale>  0 0.57250393E+02</rscale>
<asrwt>0</asrwt>
<pdfrwt beam="2">  1        2 0.11492539E-01 0.57250393E+02</pdfrwt>
<pdfrwt beam="1">  1       -2 0.16875407E-02 0.57250393E+02</pdfrwt>
<totfact> 0.39361252E+05</totfact>
</mgrwt>
</event>
<event>
 4    1  0.4834411E-002  0.8406591E+02  0.7818608E-02  0.1317894E+00
         -2   -1    0    0  501    0 -0.00000000000E+00  0.00000000000E+00  0.18502045874E+03  0.18502045876E+03  0.25500000000E-02 0.  1.
          2   -1    0    0    0  501  0.00000000000E+00 -0.00000000000E+00 -0.95490482529E+01  0.95490485933E+01  0.25500000000E-02 0.  1.
          2    1    1    2    0  502  0.69482414982E+01 -0.34685793320E+02  0.35191891947E+02  0.49898412635E+02  0.25500000000E-02 0.  1.
         -2    1    1    2  502    0 -0.69482414982E+01  0.34685793320E+02  0.14027951854E+03  0.14467109471E+03  0.25500000000E-02 0.  1.
<mgrwt>
<rscale>  0 0.84065910E+02</rscale>
<asrwt>0</asrwt>
<pdfrwt beam="2">  1        2 0.14690845E-02 0.84065910E+02</pdfrwt>
<pdfrwt beam="1">  1       -2 0.28464684E-01 0.84065910E+02</pdfrwt>
<totfact> 0.79180734E+04</totfact>
</mgrwt>
</event>
<event>
 4    1  0.4834411E-002  0.4735323E+02  0.7818608E-02  0.1460164E+00
         -2   -1    0    0  501    0 -0.00000000000E+00  0.00000000000E+00  0.88481814112E+00  0.88482181560E+00  0.25500000000E-02 0.  1.
          2   -1    0    0    0  501  0.00000000000E+00 -0.00000000000E+00 -0.63355503429E+03  0.63355503429E+03  0.25500000000E-02 0.  1.
          2    1    1    2    0  502 -0.15422123662E+02  0.16214473869E+02 -0.41996958885E+03  0.42056534168E+03  0.25500000000E-02 0.  1.
         -2    1    1    2  502    0  0.15422123662E+02 -0.16214473869E+02 -0.21270062730E+03  0.21387451443E+03  0.25500000000E-02 0.  1.
<mgrwt>
<rscale>  0 0.47353232E+02</rscale>
<asrwt>0</asrwt>
<pdfrwt beam="2">  1        2 0.97469643E-01 0.47353232E+02</pdfrwt>
<pdfrwt beam="1">  1       -2 0.13612666E-03 0.47353232E+02</pdfrwt>
<totfact> 0.12283236E+06</totfact>
</mgrwt>
</event>
<event>
 4    1  0.4834411E-002  0.4081185E+02  0.7818608E-02  0.1502321E+00
         -2   -1    0    0  501    0 -0.00000000000E+00  0.00000000000E+00  0.37810188341E+02  0.37810188427E+02  0.25500000000E-02 0. -1.
          2   -1    0    0    0  501  0.00000000000E+00 -0.00000000000E+00 -0.11012949519E+02  0.11012949814E+02  0.25500000000E-02 0. -1.
          2    1    1    2    0  502  0.14914905237E+02  0.13923868865E+02  0.13075008222E+02  0.24233950749E+02  0.25500000000E-02 0.  1.
         -2    1    1    2  502    0 -0.14914905237E+02 -0.13923868865E+02  0.13722230600E+02  0.24589187493E+02  0.25500000000E-02 0.  1.
<mgrwt>
<rscale>  0 0.40811847E+02</rscale>
<asrwt>0</asrwt>
<pdfrwt beam="2">  1        2 0.16943000E-02 0.40811847E+02</pdfrwt>
<pdfrwt beam="1">  1       -2 0.58169521E-02 0.40811847E+02</pdfrwt>
<totfact> 0.69070154E+05</totfact>
</mgrwt>
</event>
<event>
 4    1  0.4834411E-002  0.5481136E+02  0.7818608E-02  0.1420993E+00
          2   -1    0    0    0  501  0.00000000000E+00  0.00000000000E+00  0.33359769427E+01  0.33359779173E+01  0.25500000000E-02 0.  1.
         -2   -1    0    0  501    0 -0.00000000000E+00 -0.00000000000E+00 -0.22514278103E+03  0.22514278105E+03  0.25500000000E-02 0.  1.
          2    1    1    2    0  502 -0.23848244412E+01  0.21718042792E+02 -0.41939636179E+02  0.47289468803E+02  0.25500000000E-02 0. -1.
         -2    1    1    2  502    0  0.23848244412E+01 -0.21718042792E+02 -0.17986716791E+03  0.18118929016E+03  0.25500000000E-02 0. -1.
<mgrwt>
<rscale>  0 0.54811358E+02</rscale>
<asrwt>0</asrwt>
<pdfrwt beam="1">  1        2 0.51322748E-03 0.54811358E+02</pdfrwt>
<pdfrwt beam="2">  1       -2 0.34637339E-01 0.54811358E+02</pdfrwt>
<totfact> 0.21357141E+05</totfact>
</mgrwt>
</event>
<event>
 4    1  0.4834411E-002  0.8350003E+02  0.7818608E-02  0.1319402E+00
         -2   -1    0    0  501    0 -0.00000000000E+00  0.00000000000E+00  0.21013234527E+03  0.21013234528E+03  0.25500000000E-02 0. -1.
          2   -1    0    0    0  501  0.00000000000E+00 -0.00000000000E+00 -0.82950762874E+01  0.82950766793E+01  0.25500000000E-02 0. -1.
          2    1    1    2    0  502 -0.10713869152E+02  0.25410258214E+02  0.18291751684E+03  0.18498455662E+03  0.25500000000E-02 0. -1.
         -2    1    1    2  502    0  0.10713869152E+02 -0.25410258214E+02  0.18919752141E+02  0.33442865342E+02  0.25500000000E-02 0. -1.
<mgrwt>
<rscale>  0 0.83500033E+02</rscale>
<asrwt>0</asrwt>
<pdfrwt beam="2">  1        2 0.12761656E-02 0.83500033E+02</pdfrwt>
<pdfrwt beam="1">  1       -2 0.32328054E-01 0.83500033E+02</pdfrwt>
<totfact> 0.76320255E+04</totfact>
</mgrwt>
</event>
<event>
 4    1  0.4834411E-002  0.4119149E+02  0.7818608E-02  0.1499622E+00
         -2   -1    0    0  501    0 -0.00000000000E+00  0.00000000000E+00  0.27481343444E+00  0.27482526494E+00  0.25500000000E-02 0.  1.
          2   -1    0    0    0  501  0.00000000000E+00 -0.00000000000E+00 -0.15435036996E+04  0.15435036996E+04  0.25500000000E-02 0.  1.
          2    1    1    2    0  502 -0.11299279796E+02  0.17097411262E+02 -0.84832546544E+03  0.84857297301E+03  0.25500000000E-02 0.  1.
         -2    1    1    2  502    0  0.11299279796E+02 -0.17097411262E+02 -0.69490342068E+03  0.69520555181E+03  0.25500000000E-02 0.  1.
<mgrwt>
<rscale>  0 0.41191489E+02</rscale>
<asrwt>0</asrwt>
<pdfrwt beam="2">  1        2 0.23745517E+00 0.41191489E+02</pdfrwt>
<pdfrwt beam="1">  1       -2 0.42281136E-04 0.41191489E+02</pdfrwt>
<totfact> 0.17442444E+06</totfact>
</mgrwt>
</event>
<event>
 4    1  0.4834411E-002  0.5830957E+02  0.7818608E-02  0.1405066E+00
         -2   -1    0    0  501    0 -0.00000000000E+00  0.00000000000E+00  0.45877650103E+01  0.45877657190E+01  0.25500000000E-02 0.  1.
          2   -1    0    0    0  501  0.00000000000E+00 -0.00000000000E+00 -0.18527568886E+03  0.18527568888E+03  0.25500000000E-02 0.  1.
          2    1    1    2    0  502  0.22300180239E+02 -0.11216805601E+02 -0.13939023433E+03  0.14160774061E+03  0.25500000000E-02 0.  1.
         -2    1    1    2  502    0 -0.22300180239E+02  0.11216805601E+02 -0.41297689524E+02  0.48255713994E+02  0.25500000000E-02 0.  1.
<mgrwt>
<rscale>  0 0.58309567E+02</rscale>
<asrwt>0</asrwt>
<pdfrwt beam="2">  1        2 0.28503946E-01 0.58309567E+02</pdfrwt>
<pdfrwt beam="1">  1       -2 0.70581020E-03 0.58309567E+02</pdfrwt>
<totfact> 0.48649398E+05</totfact>
</mgrwt>
</event>
<event>
 4    1  0.4834411E-002  0.4194589E+02  0.7818608E-02  0.1494361E+00
         -2   -1    0    0  501    0 -0.00000000000E+00  0.00000000000E+00  0.26564742256E+03  0.26564742257E+03  0.25500000000E-02 0. -1.
          2   -1    0    0    0  501  0.00000000000E+00 -0.00000000000E+00 -0.16558194952E+01  0.16558214587E+01  0.25500000000E-02 0. -1.
          2    1    1    2    0  502 -0.13350366417E+02  0.16054885675E+02  0.14453666400E+03  0.14603711475E+03  0.25500000000E-02 0.  1.
         -2    1    1    2  502    0  0.13350366417E+02 -0.16054885675E+02  0.11945493906E+03  0.12126612928E+03  0.25500000000E-02 0.  1.
<mgrwt>
<rscale>  0 0.41945891E+02</rscale>
<asrwt>0</asrwt>
<pdfrwt beam="2">  1        2 0.25474178E-03 0.41945891E+02</pdfrwt>
<pdfrwt beam="1">  1       -2 0.40868808E-01 0.41945891E+02</pdfrwt>
<totfact> 0.37991080E+05</totfact>
</mgrwt>
</event>
<event>
 4    1  0.4834411E-002  0.4553841E+02  0.7818608E-02  0.1471008E+00
         -2   -1    0    0  501    0 -0.00000000000E+00  0.00000000000E+00  0.26500736641E+01  0.26500748909E+01  0.25500000000E-02 0. -1.
          2   -1    0    0    0  501  0.00000000000E+00 -0.00000000000E+00 -0.19563100893E+03  0.19563100895E+03  0.25500000000E-02 0. -1.
          2    1    1    2    0  502 -0.19420700842E+02 -0.11704473173E+02 -0.87484227988E+02  0.90375043384E+02  0.25500000000E-02 0. -1.
         -2    1    1    2  502    0  0.19420700842E+02  0.11704473173E+02 -0.10549670728E+03  0.10790604046E+03  0.25500000000E-02 0. -1.
<mgrwt>
<rscale>  0 0.45538411E+02</rscale>
<asrwt>0</asrwt>
<pdfrwt beam="2">  1        2 0.30097067E-01 0.45538411E+02</pdfrwt>
<pdfrwt beam="1">  1       -2 0.40770389E-03 0.45538411E+02</pdfrwt>
<totfact> 0.92228856E+05</totfact>
</mgrwt>
</event>
<event>
 4    1  0.4834411E-002  0.6586837E+02  0.7818608E-02  0.1374734E+00
         -2   -1    0    0  501    0 -0.00000000000E+00  0.00000000000E+00  0.88273836555E+00  0.88274204868E+00  0.25500000000E-02 0. -1.
          2   -1    0    0    0  501  0.00000000000E+00 -0.00000000000E+00 -0.12287428267E+04  0.12287428267E+04  0.25500000000E-02 0. -1.
          2    1    1    2    0  502 -0.27704304334E+02 -0.12698898709E+02 -0.84699526205E+03  0.84754337025E+03  0.25500000000E-02 0.  1.
         -2    1    1    2  502    0  0.27704304334E+02  0.12698898709E+02 -0.38086482627E+03  0.38208219849E+03  0.25500000000E-02 0.  1.
<mgrwt>
<rscale>  0 0.65868375E+02</rscale>
<asrwt>0</asrwt>
<pdfrwt beam="2">  1        2 0.18903599E+00 0.65868375E+02</pdfrwt>
<pdfrwt beam="1">  1       -2 0.13580717E-03 0.65868375E+02</pdfrwt>
<totfact> 0.57557539E+05</totfact>
</mgrwt>
</event>
<event>
 4    1  0.4834411E-002  0.4501305E+02  0.7818608E-02  0.1474260E+00
         -2   -1    0    0  501    0 -0.00000000000E+00  0.00000000000E+00  0.13467292793E+02  0.13467293034E+02  0.25500000000E-02 0. -1.
          2   -1    0    0    0  501  0.00000000000E+00 -0.00000000000E+00 -0.37612876520E+02  0.37612876607E+02  0.25500000000E-02 0. -1.
          2    1    1    2    0  502 -0.16050460695E+02  0.13297173186E+02 -0.24363605577E+01  0.20984946093E+02  0.25500000000E-02 0.  1.
         -2    1    1    2  502    0  0.16050460695E+02 -0.13297173186E+02 -0.21709223170E+02  0.30095223548E+02  0.25500000000E-02 0.  1.
<mgrwt>
<rscale>  0 0.45013048E+02</rscale>
<asrwt>0</asrwt>
<pdfrwt beam="2">  1        2 0.57865964E-02 0.45013048E+02</pdfrwt>
<pdfrwt beam="1">  1       -2 0.20718912E-02 0.45013048E+02</pdfrwt>
<totfact> 0.63872698E+05</totfact>
</mgrwt>
</event>
<event>
 4    1  0.4834411E-002  0.9654989E+02  0.7818608E-02  0.1287723E+00
          2   -1    0    0    0  501  0.00000000000E+00  0.00000000000E+00  0.28486257352E+03  0.28486257354E+03  0.25500000000E-02 0. -1.
         -2   -1    0    0  501    0 -0.00000000000E+00 -0.00000000000E+00 -0.81810326886E+01  0.81810330861E+01  0.25500000000E-02 0. -1.
          2    1    1    2    0  502  0.48063154825E+02 -0.35290715586E+01  0.12978353469E+03  0.13844236014E+03  0.25500000000E-02 0. -1.
         -2    1    1    2  502    0 -0.48063154825E+02  0.35290715586E+01  0.14689800615E+03  0.15460124649E+03  0.25500000000E-02 0. -1.
<mgrwt>
<rscale>  0 0.96549885E+02</rscale>
<asrwt>0</asrwt>
<pdfrwt beam="1">  1        2 0.43825004E-01 0.96549885E+02</pdfrwt>
<pdfrwt beam="2">  1       -2 0.12586206E-02 0.96549885E+02</pdfrwt>
<totfact> 0.15114818E+05</totfact>
</mgrwt>
</event>
<event>
 4    1  0.4834411E-002  0.5787060E+02  0.7818608E-02  0.1406991E+00
          2   -1    0    0    0  501  0.00000000000E+00  0.00000000000E+00  0.64663717772E+02  0.64663717822E+02  0.25500000000E-02 0.  1.
         -2   -1    0    0  501    0 -0.00000000000E+00 -0.00000000000E+00 -0.12947779610E+02  0.12947779861E+02  0.25500000000E-02 0.  1.
          2    1    1    2    0  502 -0.21160243949E+02  0.11432152781E+02  0.47433003699E+02  0.53182138803E+02  0.25500000000E-02 0. -1.
         -2    1    1    2  502    0  0.21160243949E+02 -0.11432152781E+02  0.42829344625E+01  0.24429358880E+02  0.25500000000E-02 0. -1.
<mgrwt>
<rscale>  0 0.57870600E+02</rscale>
<asrwt>0</asrwt>
<pdfrwt beam="1">  1        2 0.99482644E-02 0.57870600E+02</pdfrwt>
<pdfrwt beam="2">  1       -2 0.19919661E-02 0.57870600E+02</pdfrwt>
<totfact> 0.37026625E+05</totfact>
</mgrwt>
</event>
<event>
 4    1  0.4834411E-002  0.6135759E+02  0.7818608E-02  0.1392221E+00
         -2   -1    0    0  501    0 -0.00000000000E+00  0.00000000000E+00  0.23753898938E+03  0.23753898940E+03  0.25500000000E-02 0. -1.
          2   -1    0    0    0  501  0.00000000000E+00 -0.00000000000E+00 -0.39622481351E+01  0.39622489556E+01  0.25500000000E-02 0. -1.
          2    1    1    2    0  502 -0.49773483712E+01  0.23256134588E+02  0.40511194559E+02  0.46976363034E+02  0.25500000000E-02 0. -1.
         -2    1    1    2  502    0  0.49773483712E+01 -0.23256134588E+02  0.19306554669E+03  0.19452487532E+03  0.25500000000E-02 0. -1.
<mgrwt>
<rscale>  0 0.61357592E+02</rscale>
<asrwt>0</asrwt>
<pdfrwt beam="2">  1        2 0.60957659E-03 0.61357592E+02</pdfrwt>
<pdfrwt beam="1">  1       -2 0.36544467E-01 0.61357592E+02</pdfrwt>
<totfact> 0.15732953E+05</totfact>
</mgrwt>
</event>
<event>
 4    1  0.4834411E-002  0.4498532E+02  0.7818608E-02  0.1474433E+00
         -2   -1    0    0  501    0 -0.00000000000E+00  0.00000000000E+00  0.28097555366E+01  0.28097566938E+01  0.25500000000E-02 0.  1.
          2   -1    0    0    0  501  0.00000000000E+00 -0.00000000000E+00 -0.18005823795E+03  0.18005823797E+03  0.25500000000E-02 0.  1.
          2    1    1    2    0  502  0.61796981267E+01  0.21627032419E+02 -0.88828781707E+02  0.91632252325E+02  0.25500000000E-02 0. -1.
         -2    1    1    2  502    0 -0.61796981267E+01 -0.21627032419E+02 -0.88419700708E+02  0.91235742338E+02  0.25500000000E-02 0. -1.
<mgrwt>
<rscale>  0 0.44985319E+02</rscale>
<asrwt>0</asrwt>
<pdfrwt beam="2">  1        2 0.27701258E-01 0.44985319E+02</pdfrwt>
<pdfrwt beam="1">  1       -2 0.43227031E-03 0.44985319E+02</pdfrwt>
<totfact> 0.92544111E+05</totfact>
</mgrwt>
</event>
<event>
 4    1  0.4834411E-002  0.4725160E+02  0.7818608E-02  0.1460756E+00
         -2   -1    0    0  501    0 -0.00000000000E+00  0.00000000000E+00  0.39435164362E+01  0.39435172606E+01  0.25500000000E-02 0. -1.
          2   -1    0    0    0  501  0.00000000000E+00 -0.00000000000E+00 -0.14154328821E+03  0.14154328823E+03  0.25500000000E-02 0. -1.
          2    1    1    2    0  502  0.20001994670E+02  0.40403680707E+01 -0.10546097617E+03  0.10741704644E+03  0.25500000000E-02 0.  1.
         -2    1    1    2  502    0 -0.20001994670E+02 -0.40403680707E+01 -0.32138795603E+02  0.38069759051E+02  0.25500000000E-02 0.  1.
<mgrwt>
<rscale>  0 0.47251597E+02</rscale>
<asrwt>0</asrwt>
<pdfrwt beam="2">  1        2 0.21775887E-01 0.47251597E+02</pdfrwt>
<pdfrwt beam="1">  1       -2 0.60669501E-03 0.47251597E+02</pdfrwt>
<totfact> 0.76040098E+05</totfact>
</mgrwt>
</event>
<event>
 4    1  0.4834411E-002  0.2090577E+03  0.7818608E-02  0.1142314E+00
          2   -1    0    0    0  501  0.00000000000E+00  0.00000000000E+00  0.18505813435E+04  0.18505813435E+04  0.25500000000E-02 0.  1.
         -2   -1    0    0  501    0 -0.00000000000E+00 -0.00000000000E+00 -0.59042415753E+01  0.59042421260E+01  0.25500000000E-02 0.  1.
          2    1    1    2    0  502  0.38485860523E+02 -0.61082559803E+02  0.15936082380E+04  0.15952427580E+04  0.25500000000E-02 0.  1.
         -2    1    1    2  502    0 -0.38485860523E+02  0.61082559803E+02  0.25106886390E+03  0.26124282765E+03  0.25500000000E-02 0.  1.
<mgrwt>
<rscale>  0 0.20905769E+03</rscale>
<asrwt>0</asrwt>
<pdfrwt beam="1">  1        2 0.28470482E+00 0.20905769E+03</pdfrwt>
<pdfrwt beam="2">  1       -2 0.90834491E-03 0.20905769E+03</pdfrwt>
<totfact> 0.21590174E+04</totfact>
</mgrwt>
</event>
<event>
 4    1  0.4834411E-002  0.4383669E+02  0.7818608E-02  0.1481737E+00
         -2   -1    0    0  501    0 -0.00000000000E+00  0.00000000000E+00  0.33423429123E+00  0.33424401855E+00  0.25500000000E-02 0. -1.
          2   -1    0    0    0  501  0.00000000000E+00 -0.00000000000E+00 -0.14373357929E+04  0.14373357929E+04  0.25500000000E-02 0. -1.
          2    1    1    2    0  502 -0.11179579216E+02 -0.18290755250E+02 -0.86835816226E+03  0.86862272172E+03  0.25500000000E-02 0.  1.
         -2    1    1    2  502    0  0.11179579216E+02  0.18290755250E+02 -0.56864339630E+03  0.56904731515E+03  0.25500000000E-02 0.  1.
<mgrwt>
<rscale>  0 0.43836693E+02</rscale>
<asrwt>0</asrwt>
<pdfrwt beam="2">  1        2 0.22112364E+00 0.43836693E+02</pdfrwt>
<pdfrwt beam="1">  1       -2 0.51422559E-04 0.43836693E+02</pdfrwt>
<totfact> 0.15360760E+06</totfact>
</mgrwt>
</event>
<event>
 4    1  0.4834411E-002  0.6202114E+02  0.7818608E-02  0.1389540E+00
          2   -1    0    0    0  501  0.00000000000E+00  0.00000000000E+00  0.17439027619E+03  0.17439027621E+03  0.25500000000E-02 0.  1.
         -2   -1    0    0  501    0 -0.00000000000E+00 -0.00000000000E+00 -0.55143870703E+01  0.55143876599E+01  0.25500000000E-02 0.  1.
          2    1    1    2    0  502  0.22386037260E+02 -0.94382740829E+00  0.14662598451E+03  0.14832803112E+03  0.25500000000E-02 0.  1.
         -2    1    1    2  502    0 -0.22386037260E+02  0.94382740829E+00  0.22249904608E+02  0.31576632752E+02  0.25500000000E-02 0.  1.
<mgrwt>
<rscale>  0 0.62021143E+02</rscale>
<asrwt>0</asrwt>
<pdfrwt beam="1">  1        2 0.26829274E-01 0.62021143E+02</pdfrwt>
<pdfrwt beam="2">  1       -2 0.84836726E-03 0.62021143E+02</pdfrwt>
<totfact> 0.40706028E+05</totfact>
</mgrwt>
</event>
<event>
 4    1  0.4834411E-002  0.4508309E+02  0.7818608E-02  0.1473824E+00
          2   -1    0    0    0  501  0.00000000000E+00  0.00000000000E+00  0.90149221382E+03  0.90149221382E+03  0.25500000000E-02 0. -1.
         -2   -1    0    0  501    0 -0.00000000000E+00 -0.00000000000E+00 -0.56364174386E+00  0.56364751213E+00  0.25500000000E-02 0. -1.
          2    1    1    2    0  502 -0.20804896217E+02  0.34181774073E+01  0.29090339449E+03  0.29166644061E+03  0.25500000000E-02 0. -1.
         -2    1    1    2  502    0  0.20804896217E+02 -0.34181774073E+01  0.61002517758E+03  0.61038942072E+03  0.25500000000E-02 0. -1.
<mgrwt>
<rscale>  0 0.45083090E+02</rscale>
<asrwt>0</asrwt>
<pdfrwt beam="1">  1        2 0.13869158E+00 0.45083090E+02</pdfrwt>
<pdfrwt beam="2">  1       -2 0.86714263E-04 0.45083090E+02</pdfrwt>
<totfact> 0.14805596E+06</totfact>
</mgrwt>
</event>
<event>
 4    1  0.4834411E-002  0.4091009E+02  0.7818608E-02  0.1501619E+00
          2   -1    0    0    0  501  0.00000000000E+00  0.00000000000E+00  0.66910773695E+01  0.66910778554E+01  0.25500000000E-02 0.  1.
         -2   -1    0    0  501    0 -0.00000000000E+00 -0.00000000000E+00 -0.62532348649E+02  0.62532348701E+02  0.25500000000E-02 0.  1.
          2    1    1    2    0  502  0.24011710897E+01 -0.20203527255E+02 -0.31494369425E+02  0.37494578917E+02  0.25500000000E-02 0. -1.
         -2    1    1    2  502    0 -0.24011710897E+01  0.20203527255E+02 -0.24346901854E+02  0.31728847640E+02  0.25500000000E-02 0. -1.
<mgrwt>
<rscale>  0 0.40910087E+02</rscale>
<asrwt>0</asrwt>
<pdfrwt beam="1">  1        2 0.10293966E-02 0.40910087E+02</pdfrwt>
<pdfrwt beam="2">  1       -2 0.96203610E-02 0.40910087E+02</pdfrwt>
<totfact> 0.63350332E+05</totfact>
</mgrwt>
</event>
<event>
 4    1  0.4834411E-002  0.5280285E+02  0.7818608E-02  0.1430785E+00
          2   -1    0    0    0  501  0.00000000000E+00  0.00000000000E+00  0.35070994350E+03  0.35070994351E+03  0.25500000000E-02 0.  1.
         -2   -1    0    0  501    0 -0.00000000000E+00 -0.00000000000E+00 -0.19874967790E+01  0.19874984149E+01  0.25500000000E-02 0.  1.
          2    1    1    2    0  502  0.17056987817E+02 -0.13567078314E+02  0.74832245441E+02  0.77941461442E+02  0.25500000000E-02 0. -1.
         -2    1    1    2  502    0 -0.17056987817E+02  0.13567078314E+02  0.27389020128E+03  0.27475598048E+03  0.25500000000E-02 0. -1.
<mgrwt>
<rscale>  0 0.52802847E+02</rscale>
<asrwt>0</asrwt>
<pdfrwt beam="1">  1        2 0.53955363E-01 0.52802847E+02</pdfrwt>
<pdfrwt beam="2">  1       -2 0.30576893E-03 0.52802847E+02</pdfrwt>
<totfact> 0.77955541E+05</totfact>
</mgrwt>
</event>
<event>
 4    1  0.4834411E-002  0.6159582E+02  0.7818608E-02  0.1391254E+00
         -2   -1    0    0  501    0 -0.00000000000E+00  0.00000000000E+00  0.14243174620E+03  0.14243174623E+03  0.25500000000E-02 0.  1.
          2   -1    0    0    0  501  0.00000000000E+00 -0.00000000000E+00 -0.66594090224E+01  0.66594095106E+01  0.25500000000E-02 0.  1.
          2    1    1    2    0  502 -0.28993496457E+02 -0.95379300137E+01  0.57930879970E+02  0.65479628942E+02  0.25500000000E-02 0.  1.
         -2    1    1    2  502    0  0.28993496457E+02  0.95379300137E+01  0.77841457212E+02  0.83611526796E+02  0.25500000000E-02 0.  1.
<mgrwt>
<rscale>  0 0.61595821E+02</rscale>
<asrwt>0</asrwt>
<pdfrwt beam="2">  1        2 0.10245245E-02 0.61595821E+02</pdfrwt>
<pdfrwt beam="1">  1       -2 0.21912576E-01 0.61595821E+02</pdfrwt>
<totfact> 0.19061149E+05</totfact>
</mgrwt>
</event>
<event>
 4    1  0.4834411E-002  0.6893116E+02  0.7818608E-02  0.1363766E+00
          2   -1    0    0    0  501  0.00000000000E+00  0.00000000000E+00  0.30076881522E+03  0.30076881523E+03  0.25500000000E-02 0. -1.
         -2   -1    0    0  501    0 -0.00000000000E+00 -0.00000000000E+00 -0.39494655841E+01  0.39494664073E+01  0.25500000000E-02 0. -1.
          2    1    1    2    0  502 -0.46064705611E+01  0.32203941170E+02  0.98091706556E+02  0.10334551901E+03  0.25500000000E-02 0.  1.
         -2    1    1    2  502    0  0.46064705611E+01 -0.32203941170E+02  0.19872764308E+03  0.20137276263E+03  0.25500000000E-02 0.  1.
<mgrwt>
<rscale>  0 0.68931160E+02</rscale>
<asrwt>0</asrwt>
<pdfrwt beam="1">  1        2 0.46272132E-01 0.68931160E+02</pdfrwt>
<pdfrwt beam="2">  1       -2 0.60761007E-03 0.68931160E+02</pdfrwt>
<totfact> 0.37484637E+05</totfact>
</mgrwt>
</event>
<event>
 4    1  0.4834411E-002  0.4775310E+02  0.7818608E-02  0.1457852E+00
         -2   -1    0    0  501    0 -0.00000000000E+00  0.00000000000E+00  0.18619807639E+00  0.18621553682E+00  0.25500000000E-02 0.  1.
          2   -1    0    0    0  501  0.00000000000E+00 -0.00000000000E+00 -0.30615945512E+04  0.30615945512E+04  0.25500000000E-02 0.  1.
          2    1    1    2    0  502 -0.20742885631E+02 -0.11820482731E+02 -0.15105685163E+04  0.15107571722E+04  0.25500000000E-02 0. -1.
         -2    1    1    2  502    0  0.20742885631E+02  0.11820482731E+02 -0.15508398368E+04  0.15510235945E+04  0.25500000000E-02 0. -1.
<mgrwt>
<rscale>  0 0.47753105E+02</rscale>
<asrwt>0</asrwt>
<pdfrwt beam="2">  1        2 0.47097423E+00 0.47753105E+02</pdfrwt>
<pdfrwt beam="1">  1       -2 0.28649653E-04 0.47753105E+02</pdfrwt>
<totfact> 0.51931229E+05</totfact>
</mgrwt>
</event>
<event>
 4    1  0.4834411E-002  0.4218317E+02  0.7818608E-02  0.1492734E+00
         -2   -1    0    0  501    0 -0.00000000000E+00  0.00000000000E+00  0.10578653148E+02  0.10578653455E+02  0.25500000000E-02 0. -1.
          2   -1    0    0    0  501  0.00000000000E+00 -0.00000000000E+00 -0.42052137012E+02  0.42052137089E+02  0.25500000000E-02 0. -1.
          2    1    1    2    0  502  0.16804130540E+02 -0.11564539146E+02 -0.22425199313E+02  0.30315127240E+02  0.25500000000E-02 0.  1.
         -2    1    1    2  502    0 -0.16804130540E+02  0.11564539146E+02 -0.90482845515E+01  0.22315663304E+02  0.25500000000E-02 0.  1.
<mgrwt>
<rscale>  0 0.42183171E+02</rscale>
<asrwt>0</asrwt>
<pdfrwt beam="2">  1        2 0.64695595E-02 0.42183171E+02</pdfrwt>
<pdfrwt beam="1">  1       -2 0.16274852E-02 0.42183171E+02</pdfrwt>
<totfact> 0.76695548E+05</totfact>
</mgrwt>
</event>
<event>
 4    1  0.4834411E-002  0.5345614E+02  0.7818608E-02  0.1427544E+00
         -2   -1    0    0  501    0 -0.00000000000E+00  0.00000000000E+00  0.26325149349E+01  0.26325161700E+01  0.25500000000E-02 0. -1.
          2   -1    0    0    0  501  0.00000000000E+00 -0.00000000000E+00 -0.27137152670E+03  0.27137152672E+03  0.25500000000E-02 0. -1.
          2    1    1    2    0  502  0.32520578251E+01  0.22307530154E+02 -0.20797174625E+03  0.20918998310E+03  0.25500000000E-02 0.  1.
         -2    1    1    2  502    0 -0.32520578251E+01 -0.22307530154E+02 -0.60767265517E+02  0.64814059791E+02  0.25500000000E-02 0.  1.
<mgrwt>
<rscale>  0 0.53456142E+02</rscale>
<asrwt>0</asrwt>
<pdfrwt beam="2">  1        2 0.41749444E-01 0.53456142E+02</pdfrwt>
<pdfrwt beam="1">  1       -2 0.40500261E-03 0.53456142E+02</pdfrwt>
<totfact> 0.69102149E+05</totfact>
</mgrwt>
</event>
<event>
 4    1  0.4834411E-002  0.1907794E+03  0.7818608E-02  0.1157760E+00
          2   -1    0    0    0  501  0.00000000000E+00  0.00000000000E+00  0.47935219431E+03  0.47935219432E+03  0.25500000000E-02 0. -1.
         -2   -1    0    0  501    0 -0.00000000000E+00 -0.00000000000E+00 -0.18982279913E+02  0.18982280084E+02  0.25500000000E-02 0. -1.
          2    1    1    2    0  502 -0.84400531526E+02 -0.21487104199E+02  0.33182382374E+03  0.34306296125E+03  0.25500000000E-02 0. -1.
         -2    1    1    2  502    0  0.84400531526E+02  0.21487104199E+02  0.12854609065E+03  0.15527151316E+03  0.25500000000E-02 0. -1.
<mgrwt>
<rscale>  0 0.19077943E+03</rscale>
<asrwt>0</asrwt>
<pdfrwt beam="1">  1        2 0.73746492E-01 0.19077943E+03</pdfrwt>
<pdfrwt beam="2">  1       -2 0.29203508E-02 0.19077943E+03</pdfrwt>
<totfact> 0.27763113E+04</totfact>
</mgrwt>
</event>
<event>
 4    1  0.4834411E-002  0.6642246E+02  0.7818608E-02  0.1372699E+00
         -2   -1    0    0  501    0 -0.00000000000E+00  0.00000000000E+00  0.71301408066E+01  0.71301412626E+01  0.25500000000E-02 0. -1.
          2   -1    0    0    0  501  0.00000000000E+00 -0.00000000000E+00 -0.15469340284E+03  0.15469340286E+03  0.25500000000E-02 0. -1.
          2    1    1    2    0  502 -0.95373696766E+01 -0.31575699998E+02 -0.83217143978E+02  0.89515804800E+02  0.25500000000E-02 0.  1.
         -2    1    1    2  502    0  0.95373696766E+01  0.31575699998E+02 -0.64346118057E+02  0.72307739325E+02  0.25500000000E-02 0.  1.
<mgrwt>
<rscale>  0 0.66422460E+02</rscale>
<asrwt>0</asrwt>
<pdfrwt beam="2">  1        2 0.23798982E-01 0.66422460E+02</pdfrwt>
<pdfrwt beam="1">  1       -2 0.10969449E-02 0.66422460E+02</pdfrwt>
<totfact> 0.32777768E+05</totfact>
</mgrwt>
</event>
<event>
 4    1  0.4834411E-002  0.9176341E+02  0.7818608E-02  0.1298637E+00
         -2   -1    0    0  501    0 -0.00000000000E+00  0.00000000000E+00  0.12222302941E+01  0.12222329542E+01  0.25500000000E-02 0. -1.
          2   -1    0    0    0  501  0.00000000000E+00 -0.00000000000E+00 -0.17223664926E+04  0.17223664926E+04  0.25500000000E-02 0. -1.
          2    1    1    2    0  502  0.35201504316E+02  0.23454787968E+02 -0.11943902570E+04  0.11951390543E+04  0.25500000000E-02 0. -1.
         -2    1    1    2  502    0 -0.35201504316E+02 -0.23454787968E+02 -0.52675400526E+03  0.52844967126E+03  0.25500000000E-02 0. -1.
<mgrwt>
<rscale>  0 0.91763409E+02</rscale>
<asrwt>0</asrwt>
<pdfrwt beam="2">  1        2 0.26497752E+00 0.91763409E+02</pdfrwt>
<pdfrwt beam="1">  1       -2 0.18803701E-03 0.91763409E+02</pdfrwt>
<totfact> 0.21686635E+05</totfact>
</mgrwt>
</event>
<event>
 4    1  0.4834411E-002  0.5072713E+02  0.7818608E-02  0.1441459E+00
         -2   -1    0    0  501    0 -0.00000000000E+00  0.00000000000E+00  0.10998132452E+03  0.10998132455E+03  0.25500000000E-02 0.  1.
          2   -1    0    0    0  501  0.00000000000E+00 -0.00000000000E+00 -0.58492700137E+01  0.58492705696E+01  0.25500000000E-02 0.  1.
          2    1    1    2    0  502  0.69549894505E+01 -0.22800536014E+02  0.32281383108E+02  0.40128842777E+02  0.25500000000E-02 0. -1.
         -2    1    1    2  502    0 -0.69549894505E+01  0.22800536014E+02  0.71850671398E+02  0.75701752342E+02  0.25500000000E-02 0. -1.
<mgrwt>
<rscale>  0 0.50727133E+02</rscale>
<asrwt>0</asrwt>
<pdfrwt beam="2">  1        2 0.89988780E-03 0.50727133E+02</pdfrwt>
<pdfrwt beam="1">  1       -2 0.16920203E-01 0.50727133E+02</pdfrwt>
<totfact> 0.33240625E+05</totfact>
</mgrwt>
</event>
<event>
 4    1  0.4834411E-002  0.7218608E+02  0.7818608E-02  0.1352813E+00
          2   -1    0    0    0  501  0.00000000000E+00  0.00000000000E+00  0.62311469059E+03  0.62311469059E+03  0.25500000000E-02 0. -1.
         -2   -1    0    0  501    0 -0.00000000000E+00 -0.00000000000E+00 -0.20906375808E+01  0.20906391360E+01  0.25500000000E-02 0. -1.
          2    1    1    2    0  502  0.50726488878E+01  0.34912994509E+02  0.37650568378E+03  0.37815496675E+03  0.25500000000E-02 0.  1.
         -2    1    1    2  502    0 -0.50726488878E+01 -0.34912994509E+02  0.24451836922E+03  0.24705036298E+03  0.25500000000E-02 0.  1.
<mgrwt>
<rscale>  0 0.72186078E+02</rscale>
<asrwt>0</asrwt>
<pdfrwt beam="1">  1        2 0.95863869E-01 0.72186078E+02</pdfrwt>
<pdfrwt beam="2">  1       -2 0.32163644E-03 0.72186078E+02</pdfrwt>
<totfact> 0.42343267E+05</totfact>
</mgrwt>
</event>
<event>
 4    1  0.4834411E-002  0.4469350E+02  0.7818608E-02  0.1476264E+00
          2   -1    0    0    0  501  0.00000000000E+00  0.00000000000E+00  0.98562860341E+00  0.98563190206E+00  0.25500000000E-02 0. -1.
         -2   -1    0    0  501    0 -0.00000000000E+00 -0.00000000000E+00 -0.50665767513E+03  0.50665767513E+03  0.25500000000E-02 0. -1.
          2    1    1    2    0  502  0.18976096886E+02  0.11395981117E+02 -0.28769052497E+03  0.28854080960E+03  0.25500000000E-02 0.  1.
         -2    1    1    2  502    0 -0.18976096886E+02 -0.11395981117E+02 -0.21798152155E+03  0.21910249744E+03  0.25500000000E-02 0.  1.
<mgrwt>
<rscale>  0 0.44693496E+02</rscale>
<asrwt>0</asrwt>
<pdfrwt beam="1">  1        2 0.15163583E-03 0.44693496E+02</pdfrwt>
<pdfrwt beam="2">  1       -2 0.77947127E-01 0.44693496E+02</pdfrwt>
<totfact> 0.21574570E+05</totfact>
</mgrwt>
</event>
<event>
 4    1  0.4834411E-002  0.4544111E+02  0.7818608E-02  0.1471607E+00
          2   -1    0    0    0  501  0.00000000000E+00  0.00000000000E+00  0.56958174375E+03  0.56958174376E+03  0.25500000000E-02 0. -1.
         -2   -1    0    0  501    0 -0.00000000000E+00 -0.00000000000E+00 -0.90631888700E+00  0.90632247431E+00  0.25500000000E-02 0. -1.
          2    1    1    2    0  502  0.16071485272E+02  0.14118121789E+02  0.38045076553E+03  0.38105170122E+03  0.25500000000E-02 0.  1.
         -2    1    1    2  502    0 -0.16071485272E+02 -0.14118121789E+02  0.18822465933E+03  0.18943636501E+03  0.25500000000E-02 0.  1.
<mgrwt>
<rscale>  0 0.45441114E+02</rscale>
<asrwt>0</asrwt>
<pdfrwt beam="1">  1        2 0.87627953E-01 0.45441114E+02</pdfrwt>
<pdfrwt beam="2">  1       -2 0.13943396E-03 0.45441114E+02</pdfrwt>
<totfact> 0.13204505E+06</totfact>
</mgrwt>
</event>
<event>
 4    1  0.4834411E-002  0.9121300E+02  0.7818608E-02  0.1299941E+00
          2   -1    0    0    0  501  0.00000000000E+00  0.00000000000E+00  0.19177691981E+02  0.19177692151E+02  0.25500000000E-02 0. -1.
         -2   -1    0    0  501    0 -0.00000000000E+00 -0.00000000000E+00 -0.10845689992E+03  0.10845689995E+03  0.25500000000E-02 0. -1.
          2    1    1    2    0  502  0.37177718924E+02  0.25862007860E+02 -0.52165561535E+02  0.69081633245E+02  0.25500000000E-02 0. -1.
         -2    1    1    2  502    0 -0.37177718924E+02 -0.25862007860E+02 -0.37113646406E+02  0.58552958858E+02  0.25500000000E-02 0. -1.
<mgrwt>
<rscale>  0 0.91213004E+02</rscale>
<asrwt>0</asrwt>
<pdfrwt beam="1">  1        2 0.29504142E-02 0.91213004E+02</pdfrwt>
<pdfrwt beam="2">  1       -2 0.16685676E-01 0.91213004E+02</pdfrwt>
<totfact> 0.77787613E+04</totfact>
</mgrwt>
</event>
<event>
 4    1  0.4834411E-002  0.4820084E+02  0.7818608E-02  0.1455295E+00
          2   -1    0    0    0  501  0.00000000000E+00  0.00000000000E+00  0.77655539283E+03  0.77655539283E+03  0.25500000000E-02 0. -1.
         -2   -1    0    0  501    0 -0.00000000000E+00 -0.00000000000E+00 -0.74795503977E+00  0.74795938661E+00  0.25500000000E-02 0. -1.
          2    1    1    2    0  502 -0.19159739758E+02 -0.14605291027E+02  0.39835541556E+03  0.39908325857E+03  0.25500000000E-02 0.  1.
         -2    1    1    2  502    0  0.19159739758E+02  0.14605291027E+02  0.37745202223E+03  0.37822009365E+03  0.25500000000E-02 0.  1.
<mgrwt>
<rscale>  0 0.48200839E+02</rscale>
<asrwt>0</asrwt>
<pdfrwt beam="1">  1        2 0.11947048E+00 0.48200839E+02</pdfrwt>
<pdfrwt beam="2">  1       -2 0.11506994E-03 0.48200839E+02</pdfrwt>
<totfact> 0.12299382E+06</totfact>
</mgrwt>
</event>
<event>
 4    1  0.4834411E-002  0.4221550E+02  0.7818608E-02  0.1492513E+00
         -2   -1    0    0  501    0 -0.00000000000E+00  0.00000000000E+00  0.19575220595E+01  0.19575237204E+01  0.25500000000E-02 0. -1.
          2   -1    0    0    0  501  0.00000000000E+00 -0.00000000000E+00 -0.22760246120E+03  0.22760246121E+03  0.25500000000E-02 0. -1.
          2    1    1    2    0  502 -0.19335151023E+02 -0.84334772177E+01 -0.11691140616E+03  0.11879919402E+03  0.25500000000E-02 0. -1.
         -2    1    1    2  502    0  0.19335151023E+02  0.84334772177E+01 -0.10873353298E+03  0.11076079091E+03  0.25500000000E-02 0. -1.
<mgrwt>
<rscale>  0 0.42215496E+02</rscale>
<asrwt>0</asrwt>
<pdfrwt beam="2">  1        2 0.35015742E-01 0.42215496E+02</pdfrwt>
<pdfrwt beam="1">  1       -2 0.30115755E-03 0.42215496E+02</pdfrwt>
<totfact> 0.11684080E+06</totfact>
</mgrwt>
</event>
<event>
 4    1  0.4834411E-002  0.2547120E+03  0.7818608E-02  0.1110363E+00
         -2   -1    0    0  501    0 -0.00000000000E+00  0.00000000000E+00  0.11375379151E+02  0.11375379436E+02  0.25500000000E-02 0.  1.
          2   -1    0    0    0  501  0.00000000000E+00 -0.00000000000E+00 -0.14258468576E+04  0.14258468576E+04  0.25500000000E-02 0.  1.
          2    1    1    2    0  502  0.78839959171E+02 -0.13516051590E+02 -0.14805115611E+03  0.16827824472E+03  0.25500000000E-02 0.  1.
         -2    1    1    2  502    0 -0.78839959171E+02  0.13516051590E+02 -0.12664203223E+04  0.12689439923E+04  0.25500000000E-02 0.  1.
<mgrwt>
<rscale>  0 0.25471198E+03</rscale>
<asrwt>0</asrwt>
<pdfrwt beam="2">  1        2 0.21936091E+00 0.25471198E+03</pdfrwt>
<pdfrwt beam="1">  1       -2 0.17500595E-02 0.25471198E+03</pdfrwt>
<totfact> 0.14037243E+04</totfact>
</mgrwt>
</event>
<event>
 4    1  0.4834411E-002  0.5960440E+02  0.7818608E-02  0.1399499E+00
          2   -1    0    0    0  501  0.00000000000E+00  0.00000000000E+00  0.10815868964E+02  0.10815869265E+02  0.25500000000E-02 0.  1.
         -2   -1    0    0  501    0 -0.00000000000E+00 -0.00000000000E+00 -0.82117418933E+02  0.82117418973E+02  0.25500000000E-02 0.  1.
          2    1    1    2    0  502 -0.20973607668E+02 -0.37030005977E+01 -0.31479407639E+01  0.21529374575E+02  0.25500000000E-02 0. -1.
         -2    1    1    2  502    0  0.20973607668E+02  0.37030005977E+01 -0.68153609206E+02  0.71403913662E+02  0.25500000000E-02 0. -1.
<mgrwt>
<rscale>  0 0.59604404E+02</rscale>
<asrwt>0</asrwt>
<pdfrwt beam="1">  1        2 0.16639799E-02 0.59604404E+02</pdfrwt>
<pdfrwt beam="2">  1       -2 0.12633449E-01 0.59604404E+02</pdfrwt>
<totfact> 0.24076555E+05</totfact>
</mgrwt>
</event>
<event>
 4    1  0.4834411E-002  0.4209709E+02  0.7818608E-02  0.1493323E+00
          2   -1    0    0    0  501  0.00000000000E+00  0.00000000000E+00  0.15315472035E+03  0.15315472037E+03  0.25500000000E-02 0. -1.
         -2   -1    0    0  501    0 -0.00000000000E+00 -0.00000000000E+00 -0.28927690778E+01  0.28927702018E+01  0.25500000000E-02 0. -1.
          2    1    1    2    0  502  0.20281056957E+02  0.34816337168E+01  0.91541166150E+02  0.93825519723E+02  0.25500000000E-02 0. -1.
         -2    1    1    2  502    0 -0.20281056957E+02 -0.34816337168E+01  0.58720785122E+02  0.62221970850E+02  0.25500000000E-02 0. -1.
<mgrwt>
<rscale>  0 0.42097094E+02</rscale>
<asrwt>0</asrwt>
<pdfrwt beam="1">  1        2 0.23562270E-01 0.42097094E+02</pdfrwt>
<pdfrwt beam="2">  1       -2 0.44504138E-03 0.42097094E+02</pdfrwt>
<totfact> 0.10367200E+06</totfact>
</mgrwt>
</event>
<event>
 4    1  0.4834411E-002  0.4043425E+02  0.7818608E-02  0.1505040E+00
         -2   -1    0    0  501    0 -0.00000000000E+00  0.00000000000E+00  0.23039672619E+00  0.23041083729E+00  0.25500000000E-02 0. -1.
          2   -1    0    0    0  501  0.00000000000E+00 -0.00000000000E+00 -0.17739821923E+04  0.17739821923E+04  0.25500000000E-02 0. -1.
          2    1    1    2    0  502 -0.19951852403E+02 -0.28948097402E+01 -0.95307155038E+03  0.95328476149E+03  0.25500000000E-02 0. -1.
         -2    1    1    2  502    0  0.19951852403E+02  0.28948097402E+01 -0.82068024516E+03  0.82092784162E+03  0.25500000000E-02 0. -1.
<mgrwt>
<rscale>  0 0.40434253E+02</rscale>
<asrwt>0</asrwt>
<pdfrwt beam="2">  1        2 0.27290940E+00 0.40434253E+02</pdfrwt>
<pdfrwt beam="1">  1       -2 0.35448156E-04 0.40434253E+02</pdfrwt>
<totfact> 0.17013417E+06</totfact>
</mgrwt>
</event>
<event>
 4    1  0.4834411E-002  0.5037188E+02  0.7818608E-02  0.1443346E+00
         -2   -1    0    0  501    0 -0.00000000000E+00  0.00000000000E+00  0.33448702886E+02  0.33448702983E+02  0.25500000000E-02 0.  1.
          2   -1    0    0    0  501  0.00000000000E+00 -0.00000000000E+00 -0.18964311326E+02  0.18964311498E+02  0.25500000000E-02 0.  1.
          2    1    1    2    0  502  0.14411730340E+01 -0.25102396415E+02  0.87587640274E+01  0.26625612467E+02  0.25500000000E-02 0. -1.
         -2    1    1    2  502    0 -0.14411730340E+01  0.25102396415E+02  0.57256275317E+01  0.25787402013E+02  0.25500000000E-02 0. -1.
<mgrwt>
<rscale>  0 0.50371882E+02</rscale>
<asrwt>0</asrwt>
<pdfrwt beam="2">  1        2 0.29175864E-02 0.50371882E+02</pdfrwt>
<pdfrwt beam="1">  1       -2 0.51459543E-02 0.50371882E+02</pdfrwt>
<totfact> 0.42809795E+05</totfact>
</mgrwt>
</event>
<event>
 4    1  0.4834411E-002  0.9595933E+02  0.7818608E-02  0.1289030E+00
          2   -1    0    0    0  501  0.00000000000E+00  0.00000000000E+00  0.10763477449E+03  0.10763477452E+03  0.25500000000E-02 0.  1.
         -2   -1    0    0  501    0 -0.00000000000E+00 -0.00000000000E+00 -0.21387590055E+02  0.21387590207E+02  0.25500000000E-02 0.  1.
          2    1    1    2    0  502 -0.47704760617E+02 -0.19011878478E+01  0.36718984956E+02  0.60229914191E+02  0.25500000000E-02 0. -1.
         -2    1    1    2  502    0  0.47704760617E+02  0.19011878478E+01  0.49528199481E+02  0.68792450538E+02  0.25500000000E-02 0. -1.
<mgrwt>
<rscale>  0 0.95959334E+02</rscale>
<asrwt>0</asrwt>
<pdfrwt beam="1">  1        2 0.16559196E-01 0.95959334E+02</pdfrwt>
<pdfrwt beam="2">  1       -2 0.32903985E-02 0.95959334E+02</pdfrwt>
<totfact> 0.10898503E+05</totfact>
</mgrwt>
</event>
<event>
 4    1  0.4834411E-002  0.4732313E+02  0.7818608E-02  0.1460339E+00
          2   -1    0    0    0  501  0.00000000000E+00  0.00000000000E+00  0.59806841042E+02  0.59806841096E+02  0.25500000000E-02 0.  1.
         -2   -1    0    0  501    0 -0.00000000000E+00 -0.00000000000E+00 -0.93612989066E+01  0.93612992539E+01  0.25500000000E-02 0.  1.
          2    1    1    2    0  502  0.13209830777E+02  0.17439302053E+02  0.38396836218E+02  0.44192147756E+02  0.25500000000E-02 0.  1.
         -2    1    1    2  502    0 -0.13209830777E+02 -0.17439302053E+02  0.12048705917E+02  0.24975992594E+02  0.25500000000E-02 0.  1.
<mgrwt>
<rscale>  0 0.47323133E+02</rscale>
<asrwt>0</asrwt>
<pdfrwt beam="1">  1        2 0.92010528E-02 0.47323133E+02</pdfrwt>
<pdfrwt beam="2">  1       -2 0.14401998E-02 0.47323133E+02</pdfrwt>
<totfact> 0.61151913E+05</totfact>
</mgrwt>
</event>
<event>
 4    1  0.4834411E-002  0.5746036E+02  0.7818608E-02  0.1408809E+00
          2   -1    0    0    0  501  0.00000000000E+00  0.00000000000E+00  0.11502301110E+03  0.11502301113E+03  0.25500000000E-02 0.  1.
         -2   -1    0    0  501    0 -0.00000000000E+00 -0.00000000000E+00 -0.71761564066E+01  0.71761568597E+01  0.25500000000E-02 0.  1.
          2    1    1    2    0  502  0.96142981156E+01 -0.20849512005E+02  0.90653057665E+02  0.93515312915E+02  0.25500000000E-02 0. -1.
         -2    1    1    2  502    0 -0.96142981156E+01  0.20849512005E+02  0.17193797028E+02  0.28683855073E+02  0.25500000000E-02 0. -1.
<mgrwt>
<rscale>  0 0.57460357E+02</rscale>
<asrwt>0</asrwt>
<pdfrwt beam="1">  1        2 0.17695847E-01 0.57460357E+02</pdfrwt>
<pdfrwt beam="2">  1       -2 0.11040241E-02 0.57460357E+02</pdfrwt>
<totfact> 0.43605277E+05</totfact>
</mgrwt>
</event>
<event>
 4    1  0.4834411E-002  0.7326866E+02  0.7818608E-02  0.1349318E+00
          2   -1    0    0    0  501  0.00000000000E+00  0.00000000000E+00  0.45482824207E+01  0.45482831356E+01  0.25500000000E-02 0. -1.
         -2   -1    0    0  501    0 -0.00000000000E+00 -0.00000000000E+00 -0.29507274039E+03  0.29507274041E+03  0.25500000000E-02 0. -1.
          2    1    1    2    0  502 -0.11680041773E+02 -0.32915074156E+02 -0.10004788065E+03  0.10596888181E+03  0.25500000000E-02 0.  1.
         -2    1    1    2  502    0  0.11680041773E+02  0.32915074156E+02 -0.19047657733E+03  0.19365214174E+03  0.25500000000E-02 0.  1.
<mgrwt>
<rscale>  0 0.73268664E+02</rscale>
<asrwt>0</asrwt>
<pdfrwt beam="1">  1        2 0.69973604E-03 0.73268664E+02</pdfrwt>
<pdfrwt beam="2">  1       -2 0.45395791E-01 0.73268664E+02</pdfrwt>
<totfact> 0.90068795E+04</totfact>
</mgrwt>
</event>
<event>
 4    1  0.4834411E-002  0.5063349E+02  0.7818608E-02  0.1441954E+00
         -2   -1    0    0  501    0 -0.00000000000E+00  0.00000000000E+00  0.56945063440E+00  0.56945634382E+00  0.25500000000E-02 0. -1.
          2   -1    0    0    0  501  0.00000000000E+00 -0.00000000000E+00 -0.11255312404E+04  0.11255312404E+04  0.25500000000E-02 0. -1.
          2    1    1    2    0  502  0.32546340235E+01 -0.24046016017E+02 -0.72306424488E+03  0.72347128883E+03  0.25500000000E-02 0.  1.
         -2    1    1    2  502    0 -0.32546340235E+01  0.24046016017E+02 -0.40189754491E+03  0.40262940794E+03  0.25500000000E-02 0.  1.
<mgrwt>
<rscale>  0 0.50633495E+02</rscale>
<asrwt>0</asrwt>
<pdfrwt beam="2">  1        2 0.17315687E+00 0.50633495E+02</pdfrwt>
<pdfrwt beam="1">  1       -2 0.87609130E-04 0.50633495E+02</pdfrwt>
<totfact> 0.11222592E+06</totfact>
</mgrwt>
</event>
<event>
 4    1  0.4834411E-002  0.7110443E+02  0.7818608E-02  0.1356377E+00
          2   -1    0    0    0  501  0.00000000000E+00  0.00000000000E+00  0.10390693967E+02  0.10390694280E+02  0.25500000000E-02 0.  1.
         -2   -1    0    0  501    0 -0.00000000000E+00 -0.00000000000E+00 -0.12164345498E+03  0.12164345501E+03  0.25500000000E-02 0.  1.
          2    1    1    2    0  502  0.29250162022E+02 -0.17544157608E+02 -0.37002590193E+02  0.50324557941E+02  0.25500000000E-02 0. -1.
         -2    1    1    2  502    0 -0.29250162022E+02  0.17544157608E+02 -0.74250170824E+02  0.81709591349E+02  0.25500000000E-02 0. -1.
<mgrwt>
<rscale>  0 0.71104428E+02</rscale>
<asrwt>0</asrwt>
<pdfrwt beam="1">  1        2 0.15985684E-02 0.71104428E+02</pdfrwt>
<pdfrwt beam="2">  1       -2 0.18714377E-01 0.71104428E+02</pdfrwt>
<totfact> 0.14003235E+05</totfact>
</mgrwt>
</event>
<event>
 4    1  0.4834411E-002  0.4035425E+02  0.7818608E-02  0.1505621E+00
          2   -1    0    0    0  501  0.00000000000E+00  0.00000000000E+00  0.10695433936E+04  0.10695433936E+04  0.25500000000E-02 0. -1.
         -2   -1    0    0  501    0 -0.00000000000E+00 -0.00000000000E+00 -0.38064072139E+00  0.38064926281E+00  0.25500000000E-02 0. -1.
          2    1    1    2    0  502  0.20052756712E+02  0.15405841368E+01  0.57757774968E+03  0.57792780119E+03  0.25500000000E-02 0.  1.
         -2    1    1    2  502    0 -0.20052756712E+02 -0.15405841368E+01  0.49158500319E+03  0.49199624167E+03  0.25500000000E-02 0.  1.
<mgrwt>
<rscale>  0 0.40354248E+02</rscale>
<asrwt>0</asrwt>
<pdfrwt beam="1">  1        2 0.16454328E+00 0.40354248E+02</pdfrwt>
<pdfrwt beam="2">  1       -2 0.58561429E-04 0.40354248E+02</pdfrwt>
<totfact> 0.19551312E+06</totfact>
</mgrwt>
</event>
<event>
 4    1  0.4834411E-002  0.6271432E+02  0.7818608E-02  0.1386782E+00
          2   -1    0    0    0  501  0.00000000000E+00  0.00000000000E+00  0.16943086104E+04  0.16943086104E+04  0.25500000000E-02 0. -1.
         -2   -1    0    0  501    0 -0.00000000000E+00 -0.00000000000E+00 -0.58033517549E+00  0.58034077783E+00  0.25500000000E-02 0. -1.
          2    1    1    2    0  502  0.13240300948E+02 -0.23171871176E+02  0.40194249050E+03  0.40282751502E+03  0.25500000000E-02 0. -1.
         -2    1    1    2  502    0 -0.13240300948E+02  0.23171871176E+02  0.12917857847E+04  0.12920614361E+04  0.25500000000E-02 0. -1.
<mgrwt>
<rscale>  0 0.62714325E+02</rscale>
<asrwt>0</asrwt>
<pdfrwt beam="1">  1        2 0.26066176E+00 0.62714325E+02</pdfrwt>
<pdfrwt beam="2">  1       -2 0.89283143E-04 0.62714325E+02</pdfrwt>
<totfact> 0.58689824E+05</totfact>
</mgrwt>
</event>
<event>
 4    1  0.4834411E-002  0.4381416E+02  0.7818608E-02  0.1481883E+00
         -2   -1    0    0  501    0 -0.00000000000E+00  0.00000000000E+00  0.22912393525E+01  0.22912407715E+01  0.25500000000E-02 0. -1.
          2   -1    0    0    0  501  0.00000000000E+00 -0.00000000000E+00 -0.20945872309E+03  0.20945872310E+03  0.25500000000E-02 0. -1.
          2    1    1    2    0  502  0.21863940966E+02  0.14141923471E+00 -0.96977838970E+02  0.99412037359E+02  0.25500000000E-02 0.  1.
         -2    1    1    2  502    0 -0.21863940966E+02 -0.14141923471E+00 -0.11018964476E+03  0.11233792652E+03  0.25500000000E-02 0.  1.
<mgrwt>
<rscale>  0 0.43814163E+02</rscale>
<asrwt>0</asrwt>
<pdfrwt beam="2">  1        2 0.32224404E-01 0.43814163E+02</pdfrwt>
<pdfrwt beam="1">  1       -2 0.35249864E-03 0.43814163E+02</pdfrwt>
<totfact> 0.10375373E+06</totfact>
</mgrwt>
</event>
<event>
 4    1  0.4834411E-002  0.1011182E+03  0.7818608E-02  0.1277962E+00
          2   -1    0    0    0  501  0.00000000000E+00  0.00000000000E+00  0.22450706594E+04  0.22450706594E+04  0.25500000000E-02 0.  1.
         -2   -1    0    0  501    0 -0.00000000000E+00 -0.00000000000E+00 -0.11385918735E+01  0.11385947290E+01  0.25500000000E-02 0.  1.
          2    1    1    2    0  502  0.35187723409E+02  0.12768845986E+02  0.18769060960E+04  0.18772793379E+04  0.25500000000E-02 0. -1.
         -2    1    1    2  502    0 -0.35187723409E+02 -0.12768845986E+02  0.36702597151E+03  0.36892991622E+03  0.25500000000E-02 0. -1.
<mgrwt>
<rscale>  0 0.10111820E+03</rscale>
<asrwt>0</asrwt>
<pdfrwt beam="1">  1        2 0.34539765E+00 0.10111820E+03</pdfrwt>
<pdfrwt beam="2">  1       -2 0.17516711E-03 0.10111820E+03</pdfrwt>
<totfact> 0.13175083E+05</totfact>
</mgrwt>
</event>
<event>
 4    1  0.4834411E-002  0.6065314E+02  0.7818608E-02  0.1395111E+00
         -2   -1    0    0  501    0 -0.00000000000E+00  0.00000000000E+00  0.14020273317E+03  0.14020273319E+03  0.25500000000E-02 0.  1.
          2   -1    0    0    0  501  0.00000000000E+00 -0.00000000000E+00 -0.65597918021E+01  0.65597922977E+01  0.25500000000E-02 0.  1.
          2    1    1    2    0  502 -0.11248379451E+02 -0.24058153373E+02  0.31392867969E+02  0.41119739175E+02  0.25500000000E-02 0.  1.
         -2    1    1    2  502    0  0.11248379451E+02  0.24058153373E+02  0.10225007340E+03  0.10564278632E+03  0.25500000000E-02 0.  1.
<mgrwt>
<rscale>  0 0.60653138E+02</rscale>
<asrwt>0</asrwt>
<pdfrwt beam="2">  1        2 0.10091987E-02 0.60653138E+02</pdfrwt>
<pdfrwt beam="1">  1       -2 0.21569652E-01 0.60653138E+02</pdfrwt>
<totfact> 0.19908258E+05</totfact>
</mgrwt>
</event>
<event>
 4    1  0.4834411E-002  0.5858161E+02  0.7818608E-02  0.1403882E+00
          2   -1    0    0    0  501  0.00000000000E+00  0.00000000000E+00  0.17787041811E+04  0.17787041811E+04  0.25500000000E-02 0.  1.
         -2   -1    0    0  501    0 -0.00000000000E+00 -0.00000000000E+00 -0.48234289272E+00  0.48234963321E+00  0.25500000000E-02 0.  1.
          2    1    1    2    0  502 -0.21075306084E+02 -0.16818118498E+02  0.12366357515E+04  0.12369296664E+04  0.25500000000E-02 0. -1.
         -2    1    1    2  502    0  0.21075306084E+02  0.16818118498E+02  0.54158608670E+03  0.54225686437E+03  0.25500000000E-02 0. -1.
<mgrwt>
<rscale>  0 0.58581612E+02</rscale>
<asrwt>0</asrwt>
<pdfrwt beam="1">  1        2 0.27365332E+00 0.58581612E+02</pdfrwt>
<pdfrwt beam="2">  1       -2 0.74205349E-04 0.58581612E+02</pdfrwt>
<totfact> 0.67726098E+05</totfact>
</mgrwt>
</event>
<event>
 4    1  0.4834411E-002  0.5047677E+02  0.7818608E-02  0.1442787E+00
         -2   -1    0    0  501    0 -0.00000000000E+00  0.00000000000E+00  0.21170554859E+04  0.21170554859E+04  0.25500000000E-02 0. -1.
          2   -1    0    0    0  501  0.00000000000E+00 -0.00000000000E+00 -0.30087295059E+00  0.30088375645E+00  0.25500000000E-02 0. -1.
          2    1    1    2    0  502  0.16713924882E+02  0.18847856943E+02  0.99367570243E+03  0.99399496911E+03  0.25500000000E-02 0.  1.
         -2    1    1    2  502    0 -0.16713924882E+02 -0.18847856943E+02  0.11230789105E+04  0.11233614005E+04  0.25500000000E-02 0.  1.
<mgrwt>
<rscale>  0 0.50476774E+02</rscale>
<asrwt>0</asrwt>
<pdfrwt beam="2">  1        2 0.46287032E-04 0.50476774E+02</pdfrwt>
<pdfrwt beam="1">  1       -2 0.32571454E+00 0.50476774E+02</pdfrwt>
<totfact> 0.22558124E+04</totfact>
</mgrwt>
</event>
<event>
 4    1  0.4834411E-002  0.6704018E+02  0.7818608E-02  0.1370457E+00
          2   -1    0    0    0  501  0.00000000000E+00  0.00000000000E+00  0.78563682574E+03  0.78563682575E+03  0.25500000000E-02 0.  1.
         -2   -1    0    0  501    0 -0.00000000000E+00 -0.00000000000E+00 -0.14301717680E+01  0.14301740413E+01  0.25500000000E-02 0.  1.
          2    1    1    2    0  502 -0.28121378956E+02  0.14307877688E+02  0.52496472925E+03  0.52591205946E+03  0.25500000000E-02 0. -1.
         -2    1    1    2  502    0  0.28121378956E+02 -0.14307877688E+02  0.25924192472E+03  0.26115494033E+03  0.25500000000E-02 0. -1.
<mgrwt>
<rscale>  0 0.67040182E+02</rscale>
<asrwt>0</asrwt>
<pdfrwt beam="1">  1        2 0.12086699E+00 0.67040182E+02</pdfrwt>
<pdfrwt beam="2">  1       -2 0.22002699E-03 0.67040182E+02</pdfrwt>
<totfact> 0.53944303E+05</totfact>
</mgrwt>
</event>
<event>
 4    1  0.4834411E-002  0.7113616E+02  0.7818608E-02  0.1356272E+00
         -2   -1    0    0  501    0 -0.00000000000E+00  0.00000000000E+00  0.13546462405E+02  0.13546462645E+02  0.25500000000E-02 0. -1.
          2   -1    0    0    0  501  0.00000000000E+00 -0.00000000000E+00 -0.93388823344E+02  0.93388823379E+02  0.25500000000E-02 0. -1.
          2    1    1    2    0  502 -0.30086748274E+02  0.14466549347E+02 -0.21473765746E+02  0.39694030956E+02  0.25500000000E-02 0. -1.
         -2    1    1    2  502    0  0.30086748274E+02 -0.14466549347E+02 -0.58368595194E+02  0.67241255068E+02  0.25500000000E-02 0. -1.
<mgrwt>
<rscale>  0 0.71136157E+02</rscale>
<asrwt>0</asrwt>
<pdfrwt beam="2">  1        2 0.14367511E-01 0.71136157E+02</pdfrwt>
<pdfrwt beam="1">  1       -2 0.20840712E-02 0.71136157E+02</pdfrwt>
<totfact> 0.23542702E+05</totfact>
</mgrwt>
</event>
<event>
 4    1  0.4834411E-002  0.4533815E+02  0.7818608E-02  0.1472242E+00
          2   -1    0    0    0  501  0.00000000000E+00  0.00000000000E+00  0.25013964478E+03  0.25013964479E+03  0.25500000000E-02 0. -1.
         -2   -1    0    0  501    0 -0.00000000000E+00 -0.00000000000E+00 -0.20543997704E+01  0.20544013530E+01  0.25500000000E-02 0. -1.
          2    1    1    2    0  502 -0.21364574028E+02 -0.66052723469E+01  0.10336954073E+03  0.10576075172E+03  0.25500000000E-02 0.  1.
         -2    1    1    2  502    0  0.21364574028E+02  0.66052723469E+01  0.14471570428E+03  0.14643329443E+03  0.25500000000E-02 0.  1.
<mgrwt>
<rscale>  0 0.45338153E+02</rscale>
<asrwt>0</asrwt>
<pdfrwt beam="1">  1        2 0.38482997E-01 0.45338153E+02</pdfrwt>
<pdfrwt beam="2">  1       -2 0.31606184E-03 0.45338153E+02</pdfrwt>
<totfact> 0.10123127E+06</totfact>
</mgrwt>
</event>
<event>
 4    1  0.4834411E-002  0.5531779E+02  0.7818608E-02  0.1418602E+00
         -2   -1    0    0  501    0 -0.00000000000E+00  0.00000000000E+00  0.29738407554E+03  0.29738407555E+03  0.25500000000E-02 0.  1.
          2   -1    0    0    0  501  0.00000000000E+00 -0.00000000000E+00 -0.25724791167E+01  0.25724803805E+01  0.25500000000E-02 0.  1.
          2    1    1    2    0  502 -0.23610596029E+02  0.66306041064E+01  0.78051873534E+02  0.81813936003E+02  0.25500000000E-02 0. -1.
         -2    1    1    2  502    0  0.23610596029E+02 -0.66306041064E+01  0.21675972289E+03  0.21814261993E+03  0.25500000000E-02 0. -1.
<mgrwt>
<rscale>  0 0.55317792E+02</rscale>
<asrwt>0</asrwt>
<pdfrwt beam="2">  1        2 0.39576612E-03 0.55317792E+02</pdfrwt>
<pdfrwt beam="1">  1       -2 0.45751396E-01 0.55317792E+02</pdfrwt>
<totfact> 0.18176355E+05</totfact>
</mgrwt>
</event>
<event>
 4    1  0.4834411E-002  0.4810896E+02  0.7818608E-02  0.1455817E+00
         -2   -1    0    0  501    0 -0.00000000000E+00  0.00000000000E+00  0.12685223770E+01  0.12685249400E+01  0.25500000000E-02 0. -1.
          2   -1    0    0    0  501  0.00000000000E+00 -0.00000000000E+00 -0.45613497436E+03  0.45613497437E+03  0.25500000000E-02 0. -1.
          2    1    1    2    0  502 -0.19710756180E+02  0.71884718125E+01 -0.11556968277E+03  0.11745867196E+03  0.25500000000E-02 0.  1.
         -2    1    1    2  502    0  0.19710756180E+02 -0.71884718125E+01 -0.33929676921E+03  0.33994482735E+03  0.25500000000E-02 0.  1.
<mgrwt>
<rscale>  0 0.48108960E+02</rscale>
<asrwt>0</asrwt>
<pdfrwt beam="2">  1        2 0.70174481E-01 0.48108960E+02</pdfrwt>
<pdfrwt beam="1">  1       -2 0.19515785E-03 0.48108960E+02</pdfrwt>
<totfact> 0.10731778E+06</totfact>
</mgrwt>
</event>
<event>
 4    1  0.4834411E-002  0.6333579E+02  0.7818608E-02  0.1384343E+00
          2   -1    0    0    0  501  0.00000000000E+00  0.00000000000E+00  0.11789877161E+04  0.11789877161E+04  0.25500000000E-02 0.  1.
         -2   -1    0    0  501    0 -0.00000000000E+00 -0.00000000000E+00 -0.85060533485E+00  0.85060915712E+00  0.25500000000E-02 0.  1.
          2    1    1    2    0  502 -0.18244284614E+02  0.19930316424E+02  0.28140020980E+03  0.28269444550E+03  0.25500000000E-02 0. -1.
         -2    1    1    2  502    0  0.18244284614E+02 -0.19930316424E+02  0.89673690096E+03  0.89714387976E+03  0.25500000000E-02 0. -1.
<mgrwt>
<rscale>  0 0.63335788E+02</rscale>
<asrwt>0</asrwt>
<pdfrwt beam="1">  1        2 0.18138229E+00 0.63335788E+02</pdfrwt>
<pdfrwt beam="2">  1       -2 0.13086297E-03 0.63335788E+02</pdfrwt>
<totfact> 0.63875251E+05</totfact>
</mgrwt>
</event>
<event>
 4    1  0.4834411E-002  0.8176759E+02  0.7818608E-02  0.1324109E+00
          2   -1    0    0    0  501  0.00000000000E+00  0.00000000000E+00  0.13195847584E+02  0.13195847831E+02  0.25500000000E-02 0. -1.
         -2   -1    0    0  501    0 -0.00000000000E+00 -0.00000000000E+00 -0.12666748334E+03  0.12666748336E+03  0.25500000000E-02 0. -1.
          2    1    1    2    0  502  0.33965968458E+02  0.22755002054E+02 -0.56885765001E+02  0.70053318251E+02  0.25500000000E-02 0. -1.
         -2    1    1    2  502    0 -0.33965968458E+02 -0.22755002054E+02 -0.56585870754E+02  0.69810012944E+02  0.25500000000E-02 0. -1.
<mgrwt>
<rscale>  0 0.81767593E+02</rscale>
<asrwt>0</asrwt>
<pdfrwt beam="1">  1        2 0.20301305E-02 0.81767593E+02</pdfrwt>
<pdfrwt beam="2">  1       -2 0.19487304E-01 0.81767593E+02</pdfrwt>
<totfact> 0.97418180E+04</totfact>
</mgrwt>
</event>
<event>
 4    1  0.4834411E-002  0.7559868E+02  0.7818608E-02  0.1342027E+00
         -2   -1    0    0  501    0 -0.00000000000E+00  0.00000000000E+00  0.35691818772E+00  0.35692729683E+00  0.25500000000E-02 0.  1.
          2   -1    0    0    0  501  0.00000000000E+00 -0.00000000000E+00 -0.40030797737E+04  0.40030797737E+04  0.25500000000E-02 0.  1.
          2    1    1    2    0  502  0.34791188421E+02 -0.13124695122E+02 -0.16417806342E+04  0.16422016731E+04  0.25500000000E-02 0.  1.
         -2    1    1    2  502    0 -0.34791188421E+02  0.13124695122E+02 -0.23609422214E+04  0.23612350279E+04  0.25500000000E-02 0.  1.
<mgrwt>
<rscale>  0 0.75598683E+02</rscale>
<asrwt>0</asrwt>
<pdfrwt beam="2">  1        2 0.61582247E+00 0.75598683E+02</pdfrwt>
<pdfrwt beam="1">  1       -2 0.54914397E-04 0.75598683E+02</pdfrwt>
<totfact> 0.56716111E+04</totfact>
</mgrwt>
</event>
<event>
 4    1  0.4834411E-002  0.1102983E+03  0.7818608E-02  0.1260018E+00
         -2   -1    0    0  501    0 -0.00000000000E+00  0.00000000000E+00  0.20158896406E+02  0.20158896567E+02  0.25500000000E-02 0.  1.
          2   -1    0    0    0  501  0.00000000000E+00 -0.00000000000E+00 -0.15087284830E+03  0.15087284833E+03  0.25500000000E-02 0.  1.
          2    1    1    2    0  502  0.28531979048E+02 -0.45867696954E+02 -0.48124008868E+02  0.72345281037E+02  0.25500000000E-02 0.  1.
         -2    1    1    2  502    0 -0.28531979048E+02  0.45867696954E+02 -0.82589943030E+02  0.98686463856E+02  0.25500000000E-02 0.  1.
<mgrwt>
<rscale>  0 0.11029833E+03</rscale>
<asrwt>0</asrwt>
<pdfrwt beam="2">  1        2 0.23211207E-01 0.11029833E+03</pdfrwt>
<pdfrwt beam="1">  1       -2 0.31013688E-02 0.11029833E+03</pdfrwt>
<totfact> 0.82999858E+04</totfact>
</mgrwt>
</event>
<event>
 4    1  0.4834411E-002  0.4139836E+02  0.7818608E-02  0.1498166E+00
         -2   -1    0    0  501    0 -0.00000000000E+00  0.00000000000E+00  0.45638608156E+01  0.45638615280E+01  0.25500000000E-02 0.  1.
          2   -1    0    0    0  501  0.00000000000E+00 -0.00000000000E+00 -0.93880149275E+02  0.93880149310E+02  0.25500000000E-02 0.  1.
          2    1    1    2    0  502 -0.20065315774E+02 -0.35679660669E+01 -0.53267799910E+02  0.57033374376E+02  0.25500000000E-02 0.  1.
         -2    1    1    2  502    0  0.20065315774E+02  0.35679660669E+01 -0.36048488549E+02  0.41410636462E+02  0.25500000000E-02 0.  1.
<mgrwt>
<rscale>  0 0.41398356E+02</rscale>
<asrwt>0</asrwt>
<pdfrwt beam="2">  1        2 0.14443099E-01 0.41398356E+02</pdfrwt>
<pdfrwt beam="1">  1       -2 0.70213256E-03 0.41398356E+02</pdfrwt>
<totfact> 0.94511770E+05</totfact>
</mgrwt>
</event>
<event>
 4    1  0.4834411E-002  0.9751606E+02  0.7818608E-02  0.1285608E+00
         -2   -1    0    0  501    0 -0.00000000000E+00  0.00000000000E+00  0.37133466304E+01  0.37133475059E+01  0.25500000000E-02 0.  1.
          2   -1    0    0    0  501  0.00000000000E+00 -0.00000000000E+00 -0.64021628265E+03  0.64021628265E+03  0.25500000000E-02 0.  1.
          2    1    1    2    0  502  0.55200427998E+01 -0.40678377712E+02 -0.14452719479E+03  0.15024417236E+03  0.25500000000E-02 0. -1.
         -2    1    1    2  502    0 -0.55200427998E+01  0.40678377712E+02 -0.49197574122E+03  0.49368545780E+03  0.25500000000E-02 0. -1.
<mgrwt>
<rscale>  0 0.97516055E+02</rscale>
<asrwt>0</asrwt>
<pdfrwt beam="2">  1        2 0.98494725E-01 0.97516055E+02</pdfrwt>
<pdfrwt beam="1">  1       -2 0.57128467E-03 0.97516055E+02</pdfrwt>
<totfact> 0.19410013E+05</totfact>
</mgrwt>
</event>
<event>
 4    1  0.4834411E-002  0.4142445E+02  0.7818608E-02  0.1497983E+00
         -2   -1    0    0  501    0 -0.00000000000E+00  0.00000000000E+00  0.23023603868E+00  0.23025015962E+00  0.25500000000E-02 0.  1.
          2   -1    0    0    0  501  0.00000000000E+00 -0.00000000000E+00 -0.18632322357E+04  0.18632322358E+04  0.25500000000E-02 0.  1.
          2    1    1    2    0  502 -0.16332547367E+02  0.12130965880E+02 -0.11062123120E+04  0.11063993817E+04  0.25500000000E-02 0. -1.
         -2    1    1    2  502    0  0.16332547367E+02 -0.12130965880E+02 -0.75678968767E+03  0.75706310424E+03  0.25500000000E-02 0. -1.
<mgrwt>
<rscale>  0 0.41424455E+02</rscale>
<asrwt>0</asrwt>
<pdfrwt beam="2">  1        2 0.28663904E+00 0.41424455E+02</pdfrwt>
<pdfrwt beam="1">  1       -2 0.35423508E-04 0.41424455E+02</pdfrwt>
<totfact> 0.15515480E+06</totfact>
</mgrwt>
</event>
<event>
 4    1  0.4834411E-002  0.4524372E+02  0.7818608E-02  0.1472826E+00
          2   -1    0    0    0  501  0.00000000000E+00  0.00000000000E+00  0.44990581176E+02  0.44990581248E+02  0.25500000000E-02 0. -1.
         -2   -1    0    0  501    0 -0.00000000000E+00 -0.00000000000E+00 -0.11374568219E+02  0.11374568505E+02  0.25500000000E-02 0. -1.
          2    1    1    2    0  502 -0.14979588869E+02  0.15340385045E+02  0.25794527537E+02  0.33542110151E+02  0.25500000000E-02 0. -1.
         -2    1    1    2  502    0  0.14979588869E+02 -0.15340385045E+02  0.78214854202E+01  0.22823039602E+02  0.25500000000E-02 0. -1.
<mgrwt>
<rscale>  0 0.45243715E+02</rscale>
<asrwt>0</asrwt>
<pdfrwt beam="1">  1        2 0.69216279E-02 0.45243715E+02</pdfrwt>
<pdfrwt beam="2">  1       -2 0.17499336E-02 0.45243715E+02</pdfrwt>
<totfact> 0.64977573E+05</totfact>
</mgrwt>
</event>
<event>
 4    1  0.4834411E-002  0.5152759E+02  0.7818608E-02  0.1437272E+00
         -2   -1    0    0  501    0 -0.00000000000E+00  0.00000000000E+00  0.65490916227E+00  0.65491412668E+00  0.25500000000E-02 0. -1.
          2   -1    0    0    0  501  0.00000000000E+00 -0.00000000000E+00 -0.10135308913E+04  0.10135308913E+04  0.25500000000E-02 0. -1.
          2    1    1    2    0  502 -0.27224638932E+01  0.25243330068E+02 -0.42033874110E+03  0.42110485012E+03  0.25500000000E-02 0. -1.
         -2    1    1    2  502    0  0.27224638932E+01 -0.25243330068E+02 -0.59253724104E+03  0.59308095531E+03  0.25500000000E-02 0. -1.
<mgrwt>
<rscale>  0 0.51527592E+02</rscale>
<asrwt>0</asrwt>
<pdfrwt beam="2">  1        2 0.15592657E+00 0.51527592E+02</pdfrwt>
<pdfrwt beam="1">  1       -2 0.10075645E-03 0.51527592E+02</pdfrwt>
<totfact> 0.10753110E+06</totfact>
</mgrwt>
</event>
<event>
 4    1  0.4834411E-002  0.6066141E+02  0.7818608E-02  0.1395077E+00
          2   -1    0    0    0  501  0.00000000000E+00  0.00000000000E+00  0.56521263408E+02  0.56521263466E+02  0.25500000000E-02 0. -1.
         -2   -1    0    0  501    0 -0.00000000000E+00 -0.00000000000E+00 -0.16276205493E+02  0.16276205693E+02  0.25500000000E-02 0. -1.
          2    1    1    2    0  502 -0.18685283616E+02 -0.23872611971E+02  0.18977569781E+02  0.35765759987E+02  0.25500000000E-02 0. -1.
         -2    1    1    2  502    0  0.18685283616E+02  0.23872611971E+02  0.21267488134E+02  0.37031709172E+02  0.25500000000E-02 0. -1.
<mgrwt>
<rscale>  0 0.60661411E+02</rscale>
<asrwt>0</asrwt>
<pdfrwt beam="1">  1        2 0.86955790E-02 0.60661411E+02</pdfrwt>
<pdfrwt beam="2">  1       -2 0.25040316E-02 0.60661411E+02</pdfrwt>
<totfact> 0.31770797E+05</totfact>
</mgrwt>
</event>
<event>
 4    1  0.4834411E-002  0.4604203E+02  0.7818608E-02  0.1467939E+00
         -2   -1    0    0  501    0 -0.00000000000E+00  0.00000000000E+00  0.49888685030E+00  0.49889336727E+00  0.25500000000E-02 0. -1.
          2   -1    0    0    0  501  0.00000000000E+00 -0.00000000000E+00 -0.10622924553E+04  0.10622924553E+04  0.25500000000E-02 0. -1.
          2    1    1    2    0  502  0.91855070480E+01 -0.20368889850E+02 -0.65879860408E+03  0.65917741614E+03  0.25500000000E-02 0. -1.
         -2    1    1    2  502    0 -0.91855070480E+01  0.20368889850E+02 -0.40299496439E+03  0.40361393254E+03  0.25500000000E-02 0. -1.
<mgrwt>
<rscale>  0 0.46042033E+02</rscale>
<asrwt>0</asrwt>
<pdfrwt beam="2">  1        2 0.16342780E+00 0.46042033E+02</pdfrwt>
<pdfrwt beam="1">  1       -2 0.76753175E-04 0.46042033E+02</pdfrwt>
<totfact> 0.14196863E+06</totfact>
</mgrwt>
</event>
<event>
 4    1  0.4834411E-002  0.6226002E+02  0.7818608E-02  0.1388585E+00
         -2   -1    0    0  501    0 -0.00000000000E+00  0.00000000000E+00  0.66528148774E+02  0.66528148823E+02  0.25500000000E-02 0.  1.
          2   -1    0    0    0  501  0.00000000000E+00 -0.00000000000E+00 -0.14566427968E+02  0.14566428191E+02  0.25500000000E-02 0.  1.
          2    1    1    2    0  502 -0.27972429234E+02 -0.12502646882E+02  0.18810578466E+02  0.35952897589E+02  0.25500000000E-02 0. -1.
         -2    1    1    2  502    0  0.27972429234E+02  0.12502646882E+02  0.33151142340E+02  0.45141679424E+02  0.25500000000E-02 0. -1.
<mgrwt>
<rscale>  0 0.62260019E+02</rscale>
<asrwt>0</asrwt>
<pdfrwt beam="2">  1        2 0.22409890E-02 0.62260019E+02</pdfrwt>
<pdfrwt beam="1">  1       -2 0.10235100E-01 0.62260019E+02</pdfrwt>
<totfact> 0.22684280E+05</totfact>
</mgrwt>
</event>
<event>
 4    1  0.4834411E-002  0.5273556E+02  0.7818608E-02  0.1431121E+00
          2   -1    0    0    0  501  0.00000000000E+00  0.00000000000E+00  0.22012580206E+02  0.22012580353E+02  0.25500000000E-02 0. -1.
         -2   -1    0    0  501    0 -0.00000000000E+00 -0.00000000000E+00 -0.31584656541E+02  0.31584656644E+02  0.25500000000E-02 0. -1.
          2    1    1    2    0  502 -0.17535572179E+02  0.19054135833E+02  0.26542543987E+00  0.25896463874E+02  0.25500000000E-02 0.  1.
         -2    1    1    2  502    0  0.17535572179E+02 -0.19054135833E+02 -0.98375017757E+01  0.27700773124E+02  0.25500000000E-02 0.  1.
<mgrwt>
<rscale>  0 0.52735559E+02</rscale>
<asrwt>0</asrwt>
<pdfrwt beam="1">  1        2 0.33865508E-02 0.52735559E+02</pdfrwt>
<pdfrwt beam="2">  1       -2 0.48591780E-02 0.52735559E+02</pdfrwt>
<totfact> 0.38779830E+05</totfact>
</mgrwt>
</event>
<event>
 4    1  0.4834411E-002  0.1140689E+03  0.7818608E-02  0.1253215E+00
          2   -1    0    0    0  501  0.00000000000E+00  0.00000000000E+00  0.10026488986E+04  0.10026488986E+04  0.25500000000E-02 0. -1.
         -2   -1    0    0  501    0 -0.00000000000E+00 -0.00000000000E+00 -0.32443336314E+01  0.32443346335E+01  0.25500000000E-02 0. -1.
          2    1    1    2    0  502  0.24043610076E+02  0.38423471372E+02  0.19442239546E+03  0.19963598423E+03  0.25500000000E-02 0.  1.
         -2    1    1    2  502    0 -0.24043610076E+02 -0.38423471372E+02  0.80498216955E+03  0.80625724905E+03  0.25500000000E-02 0.  1.
<mgrwt>
<rscale>  0 0.11406889E+03</rscale>
<asrwt>0</asrwt>
<pdfrwt beam="1">  1        2 0.15425364E+00 0.11406889E+03</pdfrwt>
<pdfrwt beam="2">  1       -2 0.49912846E-03 0.11406889E+03</pdfrwt>
<totfact> 0.13773319E+05</totfact>
</mgrwt>
</event>
<event>
 4    1  0.4834411E-002  0.5451708E+02  0.7818608E-02  0.1422397E+00
         -2   -1    0    0  501    0 -0.00000000000E+00  0.00000000000E+00  0.39795894184E+01  0.39795902354E+01  0.25500000000E-02 0. -1.
          2   -1    0    0    0  501  0.00000000000E+00 -0.00000000000E+00 -0.18670972205E+03  0.18670972207E+03  0.25500000000E-02 0. -1.
          2    1    1    2    0  502 -0.18341274912E+02  0.20164346344E+02 -0.91916768529E+02  0.95873330870E+02  0.25500000000E-02 0.  1.
         -2    1    1    2  502    0  0.18341274912E+02 -0.20164346344E+02 -0.90813364106E+02  0.94815981436E+02  0.25500000000E-02 0.  1.
<mgrwt>
<rscale>  0 0.54517084E+02</rscale>
<asrwt>0</asrwt>
<pdfrwt beam="2">  1        2 0.28724566E-01 0.54517084E+02</pdfrwt>
<pdfrwt beam="1">  1       -2 0.61224474E-03 0.54517084E+02</pdfrwt>
<totfact> 0.57874764E+05</totfact>
</mgrwt>
</event>
<event>
 4    1  0.4834411E-002  0.4555835E+02  0.7818608E-02  0.1470886E+00
          2   -1    0    0    0  501  0.00000000000E+00  0.00000000000E+00  0.21317884340E+04  0.21317884340E+04  0.25500000000E-02 0. -1.
         -2   -1    0    0  501    0 -0.00000000000E+00 -0.00000000000E+00 -0.24339964215E+00  0.24341299945E+00  0.25500000000E-02 0. -1.
          2    1    1    2    0  502 -0.10366100866E+02 -0.19970563472E+02  0.89958207280E+03  0.89986342583E+03  0.25500000000E-02 0.  1.
         -2    1    1    2  502    0  0.10366100866E+02  0.19970563472E+02  0.12319629615E+04  0.12321684211E+04  0.25500000000E-02 0.  1.
<mgrwt>
<rscale>  0 0.45558349E+02</rscale>
<asrwt>0</asrwt>
<pdfrwt beam="1">  1        2 0.32795941E+00 0.45558349E+02</pdfrwt>
<pdfrwt beam="2">  1       -2 0.37448045E-04 0.45558349E+02</pdfrwt>
<totfact> 0.10900458E+06</totfact>
</mgrwt>
</event>
<event>
 4    1  0.4834411E-002  0.4447451E+02  0.7818608E-02  0.1477649E+00
          2   -1    0    0    0  501  0.00000000000E+00  0.00000000000E+00  0.16621846318E+03  0.16621846320E+03  0.25500000000E-02 0. -1.
         -2   -1    0    0  501    0 -0.00000000000E+00 -0.00000000000E+00 -0.29749732982E+01  0.29749743911E+01  0.25500000000E-02 0. -1.
          2    1    1    2    0  502 -0.16001630635E+02 -0.14067293405E+02  0.10584835458E+03  0.10797136241E+03  0.25500000000E-02 0. -1.
         -2    1    1    2  502    0  0.16001630635E+02  0.14067293405E+02  0.57395135301E+02  0.61222075181E+02  0.25500000000E-02 0. -1.
<mgrwt>
<rscale>  0 0.44474513E+02</rscale>
<asrwt>0</asrwt>
<pdfrwt beam="1">  1        2 0.25572071E-01 0.44474513E+02</pdfrwt>
<pdfrwt beam="2">  1       -2 0.45768829E-03 0.44474513E+02</pdfrwt>
<totfact> 0.92828659E+05</totfact>
</mgrwt>
</event>
<event>
 4    1  0.4834411E-002  0.6051275E+02  0.7818608E-02  0.1395692E+00
         -2   -1    0    0  501    0 -0.00000000000E+00  0.00000000000E+00  0.39164556618E+01  0.39164564919E+01  0.25500000000E-02 0. -1.
          2   -1    0    0    0  501  0.00000000000E+00 -0.00000000000E+00 -0.23374404054E+03  0.23374404055E+03  0.25500000000E-02 0. -1.
          2    1    1    2    0  502 -0.22155639391E+02 -0.11150953057E+02 -0.18296544905E+03  0.18463903071E+03  0.25500000000E-02 0.  1.
         -2    1    1    2  502    0  0.22155639391E+02  0.11150953057E+02 -0.46862135827E+02  0.53021466330E+02  0.25500000000E-02 0.  1.
<mgrwt>
<rscale>  0 0.60512751E+02</rscale>
<asrwt>0</asrwt>
<pdfrwt beam="2">  1        2 0.35960611E-01 0.60512751E+02</pdfrwt>
<pdfrwt beam="1">  1       -2 0.60253189E-03 0.60512751E+02</pdfrwt>
<totfact> 0.47901554E+05</totfact>
</mgrwt>
</event>
<event>
 4    1  0.4834411E-002  0.1189469E+03  0.7818608E-02  0.1244844E+00
          2   -1    0    0    0  501  0.00000000000E+00  0.00000000000E+00  0.12194342701E+02  0.12194342968E+02  0.25500000000E-02 0. -1.
         -2   -1    0    0  501    0 -0.00000000000E+00 -0.00000000000E+00 -0.29006009010E+03  0.29006009011E+03  0.25500000000E-02 0. -1.
          2    1    1    2    0  502  0.57284155366E+02  0.12953540520E+02 -0.16274646468E+03  0.17301930655E+03  0.25500000000E-02 0.  1.
         -2    1    1    2  502    0 -0.57284155366E+02 -0.12953540520E+02 -0.11511928272E+03  0.12923512653E+03  0.25500000000E-02 0.  1.
<mgrwt>
<rscale>  0 0.11894692E+03</rscale>
<asrwt>0</asrwt>
<pdfrwt beam="1">  1        2 0.18760530E-02 0.11894692E+03</pdfrwt>
<pdfrwt beam="2">  1       -2 0.44624624E-01 0.11894692E+03</pdfrwt>
<totfact> 0.26121312E+04</totfact>
</mgrwt>
</event>
<event>
 4    1  0.4834411E-002  0.4260107E+02  0.7818608E-02  0.1489899E+00
         -2   -1    0    0  501    0 -0.00000000000E+00  0.00000000000E+00  0.45877056781E+00  0.45877765463E+00  0.25500000000E-02 0. -1.
          2   -1    0    0    0  501  0.00000000000E+00 -0.00000000000E+00 -0.98896752554E+03  0.98896752555E+03  0.25500000000E-02 0. -1.
          2    1    1    2    0  502 -0.20864957469E+02  0.42471871170E+01 -0.50754867036E+03  0.50799511596E+03  0.25500000000E-02 0. -1.
         -2    1    1    2  502    0  0.20864957469E+02 -0.42471871170E+01 -0.48096008462E+03  0.48143118724E+03  0.25500000000E-02 0. -1.
<mgrwt>
<rscale>  0 0.42601066E+02</rscale>
<asrwt>0</asrwt>
<pdfrwt beam="2">  1        2 0.15214714E+00 0.42601066E+02</pdfrwt>
<pdfrwt beam="1">  1       -2 0.70581424E-04 0.42601066E+02</pdfrwt>
<totfact> 0.17116598E+06</totfact>
</mgrwt>
</event>
<event>
 4    1  0.4834411E-002  0.4670013E+02  0.7818608E-02  0.1463999E+00
         -2   -1    0    0  501    0 -0.00000000000E+00  0.00000000000E+00  0.19243095212E+01  0.19243112107E+01  0.25500000000E-02 0.  1.
          2   -1    0    0    0  501  0.00000000000E+00 -0.00000000000E+00 -0.28333550412E+03  0.28333550413E+03  0.25500000000E-02 0.  1.
          2    1    1    2    0  502 -0.22937719878E+02  0.43638466246E+01 -0.14197656794E+03  0.14388373084E+03  0.25500000000E-02 0.  1.
         -2    1    1    2  502    0  0.22937719878E+02 -0.43638466246E+01 -0.13943462665E+03  0.14137608450E+03  0.25500000000E-02 0.  1.
<mgrwt>
<rscale>  0 0.46700126E+02</rscale>
<asrwt>0</asrwt>
<pdfrwt beam="2">  1        2 0.43590045E-01 0.46700126E+02</pdfrwt>
<pdfrwt beam="1">  1       -2 0.29604797E-03 0.46700126E+02</pdfrwt>
<totfact> 0.98228492E+05</totfact>
</mgrwt>
</event>
<event>
 4    1  0.4834411E-002  0.1111927E+03  0.7818608E-02  0.1258377E+00
         -2   -1    0    0  501    0 -0.00000000000E+00  0.00000000000E+00  0.63592195236E+01  0.63592200349E+01  0.25500000000E-02 0. -1.
          2   -1    0    0    0  501  0.00000000000E+00 -0.00000000000E+00 -0.48605850818E+03  0.48605850819E+03  0.25500000000E-02 0. -1.
          2    1    1    2    0  502  0.24079155945E+02  0.43662521099E+02 -0.34875236841E+03  0.35229878793E+03  0.25500000000E-02 0.  1.
         -2    1    1    2  502    0 -0.24079155945E+02 -0.43662521099E+02 -0.13094692025E+03  0.14011894030E+03  0.25500000000E-02 0.  1.
<mgrwt>
<rscale>  0 0.11119268E+03</rscale>
<asrwt>0</asrwt>
<pdfrwt beam="2">  1        2 0.74778203E-01 0.11119268E+03</pdfrwt>
<pdfrwt beam="1">  1       -2 0.97834189E-03 0.11119268E+03</pdfrwt>
<totfact> 0.12554956E+05</totfact>
</mgrwt>
</event>
<event>
 4    1  0.4834411E-002  0.4684661E+02  0.7818608E-02  0.1463132E+00
          2   -1    0    0    0  501  0.00000000000E+00  0.00000000000E+00  0.73292782601E+02  0.73292782646E+02  0.25500000000E-02 0. -1.
         -2   -1    0    0  501    0 -0.00000000000E+00 -0.00000000000E+00 -0.74857460643E+01  0.74857464986E+01  0.25500000000E-02 0. -1.
          2    1    1    2    0  502  0.19220317811E+02 -0.10431291411E+02  0.18433741419E+02  0.28601316167E+02  0.25500000000E-02 0.  1.
         -2    1    1    2  502    0 -0.19220317811E+02  0.10431291411E+02  0.47373295118E+02  0.52177212978E+02  0.25500000000E-02 0.  1.
<mgrwt>
<rscale>  0 0.46846608E+02</rscale>
<asrwt>0</asrwt>
<pdfrwt beam="1">  1        2 0.11275813E-01 0.46846608E+02</pdfrwt>
<pdfrwt beam="2">  1       -2 0.11516533E-02 0.46846608E+02</pdfrwt>
<totfact> 0.65502698E+05</totfact>
</mgrwt>
</event>
<event>
 4    1  0.4834411E-002  0.5055669E+02  0.7818608E-02  0.1442362E+00
          2   -1    0    0    0  501  0.00000000000E+00  0.00000000000E+00  0.33633265296E+03  0.33633265297E+03  0.25500000000E-02 0. -1.
         -2   -1    0    0  501    0 -0.00000000000E+00 -0.00000000000E+00 -0.18998882669E+01  0.18998899782E+01  0.25500000000E-02 0. -1.
          2    1    1    2    0  502  0.21206674395E+02  0.13020930004E+02  0.13750189463E+03  0.13973560280E+03  0.25500000000E-02 0.  1.
         -2    1    1    2  502    0 -0.21206674395E+02 -0.13020930004E+02  0.19693087007E+03  0.19849694015E+03  0.25500000000E-02 0.  1.
<mgrwt>
<rscale>  0 0.50556691E+02</rscale>
<asrwt>0</asrwt>
<pdfrwt beam="1">  1        2 0.51743509E-01 0.50556691E+02</pdfrwt>
<pdfrwt beam="2">  1       -2 0.29229050E-03 0.50556691E+02</pdfrwt>
<totfact> 0.85635425E+05</totfact>
</mgrwt>
</event>
<event>
 4    1  0.4834411E-002  0.4341029E+02  0.7818608E-02  0.1484517E+00
         -2   -1    0    0  501    0 -0.00000000000E+00  0.00000000000E+00  0.17917515311E+03  0.17917515313E+03  0.25500000000E-02 0. -1.
          2   -1    0    0    0  501  0.00000000000E+00 -0.00000000000E+00 -0.26293445638E+01  0.26293458003E+01  0.25500000000E-02 0. -1.
          2    1    1    2    0  502 -0.11595006948E+02  0.17553756360E+02  0.65901195760E+02  0.69177642036E+02  0.25500000000E-02 0.  1.
         -2    1    1    2  502    0  0.11595006948E+02 -0.17553756360E+02  0.11064461279E+03  0.11262685689E+03  0.25500000000E-02 0.  1.
<mgrwt>
<rscale>  0 0.43410290E+02</rscale>
<asrwt>0</asrwt>
<pdfrwt beam="2">  1        2 0.40451463E-03 0.43410290E+02</pdfrwt>
<pdfrwt beam="1">  1       -2 0.27565410E-01 0.43410290E+02</pdfrwt>
<totfact> 0.41570011E+05</totfact>
</mgrwt>
</event>
<event>
 4    1  0.4834411E-002  0.5574028E+02  0.7818608E-02  0.1416630E+00
          2   -1    0    0    0  501  0.00000000000E+00  0.00000000000E+00  0.83032054798E+03  0.83032054798E+03  0.25500000000E-02 0. -1.
         -2   -1    0    0  501    0 -0.00000000000E+00 -0.00000000000E+00 -0.93547388937E+00  0.93547736488E+00  0.25500000000E-02 0. -1.
          2    1    1    2    0  502  0.24439485676E+02 -0.12748539709E+01  0.61356255610E+03  0.61405042461E+03  0.25500000000E-02 0.  1.
         -2    1    1    2  502    0 -0.24439485676E+02  0.12748539709E+01  0.21582251799E+03  0.21720560074E+03  0.25500000000E-02 0.  1.
<mgrwt>
<rscale>  0 0.55740278E+02</rscale>
<asrwt>0</asrwt>
<pdfrwt beam="1">  1        2 0.12774168E+00 0.55740278E+02</pdfrwt>
<pdfrwt beam="2">  1       -2 0.14391926E-03 0.55740278E+02</pdfrwt>
<totfact> 0.86770755E+05</totfact>
</mgrwt>
</event>
<event>
 4    1  0.4834411E-002  0.1286985E+03  0.7818608E-02  0.1229400E+00
         -2   -1    0    0  501    0 -0.00000000000E+00  0.00000000000E+00  0.63516141441E+01  0.63516146560E+01  0.25500000000E-02 0.  1.
          2   -1    0    0    0  501  0.00000000000E+00 -0.00000000000E+00 -0.65193290134E+03  0.65193290134E+03  0.25500000000E-02 0.  1.
          2    1    1    2    0  502  0.10930747248E+01 -0.64042879320E+02 -0.35437974633E+03  0.36012177083E+03  0.25500000000E-02 0.  1.
         -2    1    1    2  502    0 -0.10930747248E+01  0.64042879320E+02 -0.29120154086E+03  0.29816274517E+03  0.25500000000E-02 0.  1.
<mgrwt>
<rscale>  0 0.12869851E+03</rscale>
<asrwt>0</asrwt>
<pdfrwt beam="2">  1        2 0.10029732E+00 0.12869851E+03</pdfrwt>
<pdfrwt beam="1">  1       -2 0.97717196E-03 0.12869851E+03</pdfrwt>
<totfact> 0.92336078E+04</totfact>
</mgrwt>
</event>
<event>
 4    1  0.4834411E-002  0.5024191E+02  0.7818608E-02  0.1444041E+00
         -2   -1    0    0  501    0 -0.00000000000E+00  0.00000000000E+00  0.25913018264E+00  0.25914272912E+00  0.25500000000E-02 0.  1.
          2   -1    0    0    0  501  0.00000000000E+00 -0.00000000000E+00 -0.24352514414E+04  0.24352514414E+04  0.25500000000E-02 0.  1.
          2    1    1    2    0  502 -0.97873557314E+01  0.21719181490E+02 -0.16039274015E+04  0.16041043060E+04  0.25500000000E-02 0.  1.
         -2    1    1    2  502    0  0.97873557314E+01 -0.21719181490E+02 -0.83106490975E+03  0.83140627818E+03  0.25500000000E-02 0.  1.
<mgrwt>
<rscale>  0 0.50241912E+02</rscale>
<asrwt>0</asrwt>
<pdfrwt beam="2">  1        2 0.37463574E+00 0.50241912E+02</pdfrwt>
<pdfrwt beam="1">  1       -2 0.39869097E-04 0.50241912E+02</pdfrwt>
<totfact> 0.72157505E+05</totfact>
</mgrwt>
</event>
<event>
 4    1  0.4834411E-002  0.1083052E+03  0.7818608E-02  0.1263741E+00
         -2   -1    0    0  501    0 -0.00000000000E+00  0.00000000000E+00  0.96383993420E+02  0.96383993454E+02  0.25500000000E-02 0.  1.
          2   -1    0    0    0  501  0.00000000000E+00 -0.00000000000E+00 -0.30425219161E+02  0.30425219268E+02  0.25500000000E-02 0.  1.
          2    1    1    2    0  502  0.89551971283E+01  0.28000165752E+02  0.86227986099E+02  0.91101429357E+02  0.25500000000E-02 0.  1.
         -2    1    1    2  502    0 -0.89551971283E+01 -0.28000165752E+02 -0.20269211840E+02  0.35707783365E+02  0.25500000000E-02 0.  1.
<mgrwt>
<rscale>  0 0.10830520E+03</rscale>
<asrwt>0</asrwt>
<pdfrwt beam="2">  1        2 0.46808030E-02 0.10830520E+03</pdfrwt>
<pdfrwt beam="1">  1       -2 0.14828307E-01 0.10830520E+03</pdfrwt>
<totfact> 0.52676768E+04</totfact>
</mgrwt>
</event>
<event>
 4    1  0.4834411E-002  0.4407734E+02  0.7818608E-02  0.1480185E+00
          2   -1    0    0    0  501  0.00000000000E+00  0.00000000000E+00  0.12815667737E+04  0.12815667737E+04  0.25500000000E-02 0. -1.
         -2   -1    0    0  501    0 -0.00000000000E+00 -0.00000000000E+00 -0.37898720695E+00  0.37899578564E+00  0.25500000000E-02 0. -1.
          2    1    1    2    0  502  0.14353464695E+02  0.16219584456E+02  0.52207507637E+03  0.52252414512E+03  0.25500000000E-02 0.  1.
         -2    1    1    2  502    0 -0.14353464695E+02 -0.16219584456E+02  0.75911271011E+03  0.75942162435E+03  0.25500000000E-02 0.  1.
<mgrwt>
<rscale>  0 0.44077337E+02</rscale>
<asrwt>0</asrwt>
<pdfrwt beam="1">  1        2 0.19716596E+00 0.44077337E+02</pdfrwt>
<pdfrwt beam="2">  1       -2 0.58305840E-04 0.44077337E+02</pdfrwt>
<totfact> 0.15561667E+06</totfact>
</mgrwt>
</event>
<event>
 4    1  0.4834411E-002  0.4468424E+02  0.7818608E-02  0.1476323E+00
          2   -1    0    0    0  501  0.00000000000E+00  0.00000000000E+00  0.24226615794E+04  0.24226615794E+04  0.25500000000E-02 0.  1.
         -2   -1    0    0  501    0 -0.00000000000E+00 -0.00000000000E+00 -0.20603422404E+00  0.20605000358E+00  0.25500000000E-02 0.  1.
          2    1    1    2    0  502 -0.61546816289E+00  0.21351695544E+02  0.15663572988E+04  0.15665029400E+04  0.25500000000E-02 0. -1.
         -2    1    1    2  502    0  0.61546816289E+00 -0.21351695544E+02  0.85609824640E+03  0.85636468937E+03  0.25500000000E-02 0. -1.
<mgrwt>
<rscale>  0 0.44684240E+02</rscale>
<asrwt>0</asrwt>
<pdfrwt beam="1">  1        2 0.37270881E+00 0.44684240E+02</pdfrwt>
<pdfrwt beam="2">  1       -2 0.31699497E-04 0.44684240E+02</pdfrwt>
<totfact> 0.97468737E+05</totfact>
</mgrwt>
</event>
<event>
 4    1  0.4834411E-002  0.7832976E+02  0.7818608E-02  0.1333859E+00
          2   -1    0    0    0  501  0.00000000000E+00  0.00000000000E+00  0.12873497805E+04  0.12873497805E+04  0.25500000000E-02 0.  1.
         -2   -1    0    0  501    0 -0.00000000000E+00 -0.00000000000E+00 -0.11915069356E+01  0.11915096643E+01  0.25500000000E-02 0.  1.
          2    1    1    2    0  502  0.26040590807E+02 -0.37544842283E+01  0.16583029723E+03  0.16790442521E+03  0.25500000000E-02 0. -1.
         -2    1    1    2  502    0 -0.26040590807E+02  0.37544842283E+01  0.11203279764E+04  0.11206368650E+04  0.25500000000E-02 0. -1.
<mgrwt>
<rscale>  0 0.78329763E+02</rscale>
<asrwt>0</asrwt>
<pdfrwt beam="1">  1        2 0.19805285E+00 0.78329763E+02</pdfrwt>
<pdfrwt beam="2">  1       -2 0.18330986E-03 0.78329763E+02</pdfrwt>
<totfact> 0.36607548E+05</totfact>
</mgrwt>
</event>
<event>
 4    1  0.4834411E-002  0.1542343E+03  0.7818608E-02  0.1195364E+00
         -2   -1    0    0  501    0 -0.00000000000E+00  0.00000000000E+00  0.54104498376E+01  0.54104504385E+01  0.25500000000E-02 0. -1.
          2   -1    0    0    0  501  0.00000000000E+00 -0.00000000000E+00 -0.10991788799E+04  0.10991788799E+04  0.25500000000E-02 0. -1.
          2    1    1    2    0  502 -0.50425674616E+01  0.70213147526E+02 -0.77242165448E+03  0.77562266978E+03  0.25500000000E-02 0. -1.
         -2    1    1    2  502    0  0.50425674616E+01 -0.70213147526E+02 -0.32134677557E+03  0.32896666054E+03  0.25500000000E-02 0. -1.
<mgrwt>
<rscale>  0 0.15423427E+03</rscale>
<asrwt>0</asrwt>
<pdfrwt beam="2">  1        2 0.16910427E+00 0.15423427E+03</pdfrwt>
<pdfrwt beam="1">  1       -2 0.83237782E-03 0.15423427E+03</pdfrwt>
<totfact> 0.60513926E+04</totfact>
</mgrwt>
</event>
<event>
 4    1  0.4834411E-002  0.8288515E+02  0.7818608E-02  0.1321058E+00
          2   -1    0    0    0  501  0.00000000000E+00  0.00000000000E+00  0.15923696531E+04  0.15923696531E+04  0.25500000000E-02 0. -1.
         -2   -1    0    0  501    0 -0.00000000000E+00 -0.00000000000E+00 -0.10785716366E+01  0.10785746510E+01  0.25500000000E-02 0. -1.
          2    1    1    2    0  502 -0.57211986682E+01  0.34481645078E+02  0.12237027855E+04  0.12242018719E+04  0.25500000000E-02 0. -1.
         -2    1    1    2  502    0  0.57211986682E+01 -0.34481645078E+02  0.36758829596E+03  0.36924635583E+03  0.25500000000E-02 0. -1.
<mgrwt>
<rscale>  0 0.82885153E+02</rscale>
<asrwt>0</asrwt>
<pdfrwt beam="1">  1        2 0.24497841E+00 0.82885153E+02</pdfrwt>
<pdfrwt beam="2">  1       -2 0.16593537E-03 0.82885153E+02</pdfrwt>
<totfact> 0.29548407E+05</totfact>
</mgrwt>
</event>
<event>
 4    1  0.4834411E-002  0.5620063E+02  0.7818608E-02  0.1414505E+00
          2   -1    0    0    0  501  0.00000000000E+00  0.00000000000E+00  0.34629340981E+03  0.34629340982E+03  0.25500000000E-02 0. -1.
         -2   -1    0    0  501    0 -0.00000000000E+00 -0.00000000000E+00 -0.22802262213E+01  0.22802276471E+01  0.25500000000E-02 0. -1.
          2    1    1    2    0  502  0.26654811887E+02  0.53194310137E+01  0.21623571454E+03  0.21793728362E+03  0.25500000000E-02 0.  1.
         -2    1    1    2  502    0 -0.26654811887E+02 -0.53194310137E+01  0.12777746906E+03  0.13063635385E+03  0.25500000000E-02 0.  1.
<mgrwt>
<rscale>  0 0.56200625E+02</rscale>
<asrwt>0</asrwt>
<pdfrwt beam="1">  1        2 0.53275883E-01 0.56200625E+02</pdfrwt>
<pdfrwt beam="2">  1       -2 0.35080432E-03 0.56200625E+02</pdfrwt>
<totfact> 0.66362300E+05</totfact>
</mgrwt>
</event>
<event>
 4    1  0.4834411E-002  0.5415978E+02  0.7818608E-02  0.1424115E+00
         -2   -1    0    0  501    0 -0.00000000000E+00  0.00000000000E+00  0.11354353262E+03  0.11354353264E+03  0.25500000000E-02 0.  1.
          2   -1    0    0    0  501  0.00000000000E+00 -0.00000000000E+00 -0.64584962236E+01  0.64584967270E+01  0.25500000000E-02 0.  1.
          2    1    1    2    0  502 -0.15674308285E+02 -0.17934895305E+02  0.82087807377E+02  0.85473694996E+02  0.25500000000E-02 0. -1.
         -2    1    1    2  502    0  0.15674308285E+02  0.17934895305E+02  0.24997229015E+02  0.34528334375E+02  0.25500000000E-02 0. -1.
<mgrwt>
<rscale>  0 0.54159782E+02</rscale>
<asrwt>0</asrwt>
<pdfrwt beam="2">  1        2 0.99361486E-03 0.54159782E+02</pdfrwt>
<pdfrwt beam="1">  1       -2 0.17468236E-01 0.54159782E+02</pdfrwt>
<totfact> 0.28062862E+05</totfact>
</mgrwt>
</event>
<event>
 4    1  0.4834411E-002  0.5583092E+02  0.7818608E-02  0.1416210E+00
         -2   -1    0    0  501    0 -0.00000000000E+00  0.00000000000E+00  0.17342483303E+01  0.17342502051E+01  0.25500000000E-02 0.  1.
          2   -1    0    0    0  501  0.00000000000E+00 -0.00000000000E+00 -0.44934300082E+03  0.44934300083E+03  0.25500000000E-02 0.  1.
          2    1    1    2    0  502  0.19394908148E+02 -0.14842410200E+02 -0.33304392836E+03  0.33393819462E+03  0.25500000000E-02 0. -1.
         -2    1    1    2  502    0 -0.19394908148E+02  0.14842410200E+02 -0.11456482412E+03  0.11713905641E+03  0.25500000000E-02 0. -1.
<mgrwt>
<rscale>  0 0.55830915E+02</rscale>
<asrwt>0</asrwt>
<pdfrwt beam="2">  1        2 0.69129600E-01 0.55830915E+02</pdfrwt>
<pdfrwt beam="1">  1       -2 0.26680794E-03 0.55830915E+02</pdfrwt>
<totfact> 0.73740088E+05</totfact>
</mgrwt>
</event>
<event>
 4    1  0.4834411E-002  0.6149262E+02  0.7818608E-02  0.1391673E+00
          2   -1    0    0    0  501  0.00000000000E+00  0.00000000000E+00  0.60382001781E+02  0.60382001835E+02  0.25500000000E-02 0. -1.
         -2   -1    0    0  501    0 -0.00000000000E+00 -0.00000000000E+00 -0.15655916985E+02  0.15655917192E+02  0.25500000000E-02 0. -1.
          2    1    1    2    0  502  0.10181712055E+01 -0.25258609366E+02  0.44004267526E+02  0.50748493443E+02  0.25500000000E-02 0.  1.
         -2    1    1    2  502    0 -0.10181712055E+01  0.25258609366E+02  0.72181727032E+00  0.25289425584E+02  0.25500000000E-02 0.  1.
<mgrwt>
<rscale>  0 0.61492621E+02</rscale>
<asrwt>0</asrwt>
<pdfrwt beam="1">  1        2 0.92895388E-02 0.61492621E+02</pdfrwt>
<pdfrwt beam="2">  1       -2 0.24086026E-02 0.61492621E+02</pdfrwt>
<totfact> 0.31095939E+05</totfact>
</mgrwt>
</event>
<event>
 4    1  0.4834411E-002  0.5075945E+02  0.7818608E-02  0.1441288E+00
         -2   -1    0    0  501    0 -0.00000000000E+00  0.00000000000E+00  0.15592042568E+01  0.15592063420E+01  0.25500000000E-02 0. -1.
          2   -1    0    0    0  501  0.00000000000E+00 -0.00000000000E+00 -0.41311453069E+03  0.41311453070E+03  0.25500000000E-02 0. -1.
          2    1    1    2    0  502  0.13483246953E+02 -0.15752341133E+02 -0.86215024725E+02  0.88673359553E+02  0.25500000000E-02 0.  1.
         -2    1    1    2  502    0 -0.13483246953E+02  0.15752341133E+02 -0.32534030171E+03  0.32600037749E+03  0.25500000000E-02 0.  1.
<mgrwt>
<rscale>  0 0.50759447E+02</rscale>
<asrwt>0</asrwt>
<pdfrwt beam="2">  1        2 0.63555995E-01 0.50759447E+02</pdfrwt>
<pdfrwt beam="1">  1       -2 0.23987807E-03 0.50759447E+02</pdfrwt>
<totfact> 0.90967053E+05</totfact>
</mgrwt>
</event>
<event>
 4    1  0.4834411E-002  0.6541181E+02  0.7818608E-02  0.1376429E+00
         -2   -1    0    0  501    0 -0.00000000000E+00  0.00000000000E+00  0.24407043358E+02  0.24407043491E+02  0.25500000000E-02 0. -1.
          2   -1    0    0    0  501  0.00000000000E+00 -0.00000000000E+00 -0.43826535615E+02  0.43826535689E+02  0.25500000000E-02 0. -1.
          2    1    1    2    0  502 -0.45308002522E+01 -0.32093389419E+02 -0.14276067758E+02  0.35416379156E+02  0.25500000000E-02 0. -1.
         -2    1    1    2  502    0  0.45308002522E+01  0.32093389419E+02 -0.51434244989E+01  0.32817200024E+02  0.25500000000E-02 0. -1.
<mgrwt>
<rscale>  0 0.65411808E+02</rscale>
<asrwt>0</asrwt>
<pdfrwt beam="2">  1        2 0.67425440E-02 0.65411808E+02</pdfrwt>
<pdfrwt beam="1">  1       -2 0.37549298E-02 0.65411808E+02</pdfrwt>
<totfact> 0.24625872E+05</totfact>
</mgrwt>
</event>
<event>
 4    1  0.4834411E-002  0.6546445E+02  0.7818608E-02  0.1376233E+00
          2   -1    0    0    0  501  0.00000000000E+00  0.00000000000E+00  0.33057703937E+02  0.33057704036E+02  0.25500000000E-02 0.  1.
         -2   -1    0    0  501    0 -0.00000000000E+00 -0.00000000000E+00 -0.32409953746E+02  0.32409953846E+02  0.25500000000E-02 0.  1.
          2    1    1    2    0  502  0.99067999205E+00 -0.32676676572E+02 -0.13047060596E+01  0.32717715431E+02  0.25500000000E-02 0. -1.
         -2    1    1    2  502    0 -0.99067999205E+00  0.32676676572E+02  0.19524562510E+01  0.32749942451E+02  0.25500000000E-02 0. -1.
<mgrwt>
<rscale>  0 0.65464453E+02</rscale>
<asrwt>0</asrwt>
<pdfrwt beam="1">  1        2 0.50858006E-02 0.65464453E+02</pdfrwt>
<pdfrwt beam="2">  1       -2 0.49861468E-02 0.65464453E+02</pdfrwt>
<totfact> 0.23216160E+05</totfact>
</mgrwt>
</event>
<event>
 4    1  0.4834411E-002  0.1757208E+03  0.7818608E-02  0.1172010E+00
          2   -1    0    0    0  501  0.00000000000E+00  0.00000000000E+00  0.30319709976E+03  0.30319709977E+03  0.25500000000E-02 0.  1.
         -2   -1    0    0  501    0 -0.00000000000E+00 -0.00000000000E+00 -0.25460180522E+02  0.25460180650E+02  0.25500000000E-02 0.  1.
          2    1    1    2    0  502  0.85439612244E+02 -0.16321454757E+02  0.16201351379E+03  0.18388772630E+03  0.25500000000E-02 0.  1.
         -2    1    1    2  502    0 -0.85439612244E+02  0.16321454757E+02  0.11572340544E+03  0.14476955412E+03  0.25500000000E-02 0.  1.
<mgrwt>
<rscale>  0 0.17572083E+03</rscale>
<asrwt>0</asrwt>
<pdfrwt beam="1">  1        2 0.46645706E-01 0.17572083E+03</pdfrwt>
<pdfrwt beam="2">  1       -2 0.39169510E-02 0.17572083E+03</pdfrwt>
<totfact> 0.29205274E+04</totfact>
</mgrwt>
</event>
<event>
 4    1  0.4834411E-002  0.4119589E+02  0.7818608E-02  0.1499591E+00
         -2   -1    0    0  501    0 -0.00000000000E+00  0.00000000000E+00  0.42846789165E+00  0.42847547967E+00  0.25500000000E-02 0. -1.
          2   -1    0    0    0  501  0.00000000000E+00 -0.00000000000E+00 -0.99020629345E+03  0.99020629345E+03  0.25500000000E-02 0. -1.
          2    1    1    2    0  502 -0.10862417338E+02  0.17107581799E+02 -0.40616293401E+03  0.40666815764E+03  0.25500000000E-02 0. -1.
         -2    1    1    2  502    0  0.10862417338E+02 -0.17107581799E+02 -0.58361489154E+03  0.58396661129E+03  0.25500000000E-02 0. -1.
<mgrwt>
<rscale>  0 0.41195891E+02</rscale>
<asrwt>0</asrwt>
<pdfrwt beam="2">  1        2 0.15233760E+00 0.41195891E+02</pdfrwt>
<pdfrwt beam="1">  1       -2 0.65919514E-04 0.41195891E+02</pdfrwt>
<totfact> 0.18564541E+06</totfact>
</mgrwt>
</event>
<event>
 4    1  0.4834411E-002  0.7052326E+02  0.7818608E-02  0.1358323E+00
          2   -1    0    0    0  501  0.00000000000E+00  0.00000000000E+00  0.14931445315E+04  0.14931445315E+04  0.25500000000E-02 0.  1.
         -2   -1    0    0  501    0 -0.00000000000E+00 -0.00000000000E+00 -0.83272556365E+00  0.83272946799E+00  0.25500000000E-02 0.  1.
          2    1    1    2    0  502 -0.29894561255E+02  0.16747878448E+02  0.92238777336E+03  0.92302404122E+03  0.25500000000E-02 0. -1.
         -2    1    1    2  502    0  0.29894561255E+02 -0.16747878448E+02  0.56992403260E+03  0.57095321977E+03  0.25500000000E-02 0. -1.
<mgrwt>
<rscale>  0 0.70523260E+02</rscale>
<asrwt>0</asrwt>
<pdfrwt beam="1">  1        2 0.22971522E+00 0.70523260E+02</pdfrwt>
<pdfrwt beam="2">  1       -2 0.12811155E-03 0.70523260E+02</pdfrwt>
<totfact> 0.46111714E+05</totfact>
</mgrwt>
</event>
<event>
 4    1  0.4834411E-002  0.7704336E+02  0.7818608E-02  0.1337658E+00
         -2   -1    0    0  501    0 -0.00000000000E+00  0.00000000000E+00  0.17073547670E+02  0.17073547861E+02  0.25500000000E-02 0.  1.
          2   -1    0    0    0  501  0.00000000000E+00 -0.00000000000E+00 -0.86913376498E+02  0.86913376536E+02  0.25500000000E-02 0.  1.
          2    1    1    2    0  502 -0.34446285331E+02 -0.16669203633E+01 -0.11753658710E+02  0.36434512432E+02  0.25500000000E-02 0. -1.
         -2    1    1    2  502    0  0.34446285331E+02  0.16669203633E+01 -0.58086170118E+02  0.67552411964E+02  0.25500000000E-02 0. -1.
<mgrwt>
<rscale>  0 0.77043356E+02</rscale>
<asrwt>0</asrwt>
<pdfrwt beam="2">  1        2 0.13371288E-01 0.77043356E+02</pdfrwt>
<pdfrwt beam="1">  1       -2 0.26266997E-02 0.77043356E+02</pdfrwt>
<totfact> 0.18641268E+05</totfact>
</mgrwt>
</event>
<event>
 4    1  0.4834411E-002  0.5422043E+02  0.7818608E-02  0.1423822E+00
         -2   -1    0    0  501    0 -0.00000000000E+00  0.00000000000E+00  0.12231317497E+01  0.12231344078E+01  0.25500000000E-02 0. -1.
          2   -1    0    0    0  501  0.00000000000E+00 -0.00000000000E+00 -0.60088611041E+03  0.60088611042E+03  0.25500000000E-02 0. -1.
          2    1    1    2    0  502  0.83307856557E+01 -0.23700108728E+02 -0.18665657481E+03  0.18833951807E+03  0.25500000000E-02 0. -1.
         -2    1    1    2  502    0 -0.83307856557E+01  0.23700108728E+02 -0.41300640386E+03  0.41376972675E+03  0.25500000000E-02 0. -1.
<mgrwt>
<rscale>  0 0.54220427E+02</rscale>
<asrwt>0</asrwt>
<pdfrwt beam="2">  1        2 0.92443782E-01 0.54220427E+02</pdfrwt>
<pdfrwt beam="1">  1       -2 0.18817480E-03 0.54220427E+02</pdfrwt>
<totfact> 0.86645823E+05</totfact>
</mgrwt>
</event>
<event>
 4    1  0.4834411E-002  0.1126902E+03  0.7818608E-02  0.1255668E+00
         -2   -1    0    0  501    0 -0.00000000000E+00  0.00000000000E+00  0.39801705434E+01  0.39801713602E+01  0.25500000000E-02 0.  1.
          2   -1    0    0    0  501  0.00000000000E+00 -0.00000000000E+00 -0.79764730387E+03  0.79764730387E+03  0.25500000000E-02 0.  1.
          2    1    1    2    0  502  0.41819243117E+02  0.15649358938E+02 -0.64129767829E+03  0.64285026540E+03  0.25500000000E-02 0. -1.
         -2    1    1    2  502    0 -0.41819243117E+02 -0.15649358938E+02 -0.15236945503E+03  0.15877720983E+03  0.25500000000E-02 0. -1.
<mgrwt>
<rscale>  0 0.11269024E+03</rscale>
<asrwt>0</asrwt>
<pdfrwt beam="2">  1        2 0.12271484E+00 0.11269024E+03</pdfrwt>
<pdfrwt beam="1">  1       -2 0.61233463E-03 0.11269024E+03</pdfrwt>
<totfact> 0.13856837E+05</totfact>
</mgrwt>
</event>
<event>
 4    1  0.4834411E-002  0.5438897E+02  0.7818608E-02  0.1423011E+00
         -2   -1    0    0  501    0 -0.00000000000E+00  0.00000000000E+00  0.21146562050E+01  0.21146577425E+01  0.25500000000E-02 0. -1.
          2   -1    0    0    0  501  0.00000000000E+00 -0.00000000000E+00 -0.34972108111E+03  0.34972108112E+03  0.25500000000E-02 0. -1.
          2    1    1    2    0  502  0.17263068112E+02  0.21008894051E+02 -0.17633327998E+03  0.17841752376E+03  0.25500000000E-02 0.  1.
         -2    1    1    2  502    0 -0.17263068112E+02 -0.21008894051E+02 -0.17127314492E+03  0.17341821510E+03  0.25500000000E-02 0.  1.
<mgrwt>
<rscale>  0 0.54388974E+02</rscale>
<asrwt>0</asrwt>
<pdfrwt beam="2">  1        2 0.53803198E-01 0.54388974E+02</pdfrwt>
<pdfrwt beam="1">  1       -2 0.32533212E-03 0.54388974E+02</pdfrwt>
<totfact> 0.72311447E+05</totfact>
</mgrwt>
</event>
<event>
 4    1  0.4834411E-002  0.1061144E+03  0.7818608E-02  0.1267939E+00
          2   -1    0    0    0  501  0.00000000000E+00  0.00000000000E+00  0.27413561883E+04  0.27413561883E+04  0.25500000000E-02 0.  1.
         -2   -1    0    0  501    0 -0.00000000000E+00 -0.00000000000E+00 -0.10268860074E+01  0.10268891735E+01  0.25500000000E-02 0.  1.
          2    1    1    2    0  502 -0.21762858783E+02 -0.38028824724E+02  0.21434261254E+04  0.21438739162E+04  0.25500000000E-02 0. -1.
         -2    1    1    2  502    0  0.21762858783E+02  0.38028824724E+02  0.59690317689E+03  0.59850916127E+03  0.25500000000E-02 0. -1.
<mgrwt>
<rscale>  0 0.10611437E+03</rscale>
<asrwt>0</asrwt>
<pdfrwt beam="1">  1        2 0.42174698E+00 0.10611437E+03</pdfrwt>
<pdfrwt beam="2">  1       -2 0.15798276E-03 0.10611437E+03</pdfrwt>
<totfact> 0.83485487E+04</totfact>
</mgrwt>
</event>
<event>
 4    1  0.4834411E-002  0.4491235E+02  0.7818608E-02  0.1474890E+00
         -2   -1    0    0  501    0 -0.00000000000E+00  0.00000000000E+00  0.18513835850E+01  0.18513853411E+01  0.25500000000E-02 0. -1.
          2   -1    0    0    0  501  0.00000000000E+00 -0.00000000000E+00 -0.27237983368E+03  0.27237983369E+03  0.25500000000E-02 0. -1.
          2    1    1    2    0  502  0.18908126650E+02  0.11895780013E+02 -0.14925858004E+03  0.15092100767E+03  0.25500000000E-02 0.  1.
         -2    1    1    2  502    0 -0.18908126650E+02 -0.11895780013E+02 -0.12126987005E+03  0.12331021136E+03  0.25500000000E-02 0.  1.
<mgrwt>
<rscale>  0 0.44912350E+02</rscale>
<asrwt>0</asrwt>
<pdfrwt beam="2">  1        2 0.41904558E-01 0.44912350E+02</pdfrwt>
<pdfrwt beam="1">  1       -2 0.28482859E-03 0.44912350E+02</pdfrwt>
<totfact> 0.10668599E+06</totfact>
</mgrwt>
</event>
<event>
 4    1  0.4834411E-002  0.6838006E+02  0.7818608E-02  0.1365690E+00
          2   -1    0    0    0  501  0.00000000000E+00  0.00000000000E+00  0.48883303540E+03  0.48883303541E+03  0.25500000000E-02 0. -1.
         -2   -1    0    0  501    0 -0.00000000000E+00 -0.00000000000E+00 -0.23913232880E+01  0.23913246476E+01  0.25500000000E-02 0. -1.
          2    1    1    2    0  502  0.59942604954E+01  0.33314082090E+02  0.27782151412E+03  0.27987595992E+03  0.25500000000E-02 0. -1.
         -2    1    1    2  502    0 -0.59942604954E+01 -0.33314082090E+02  0.20862019799E+03  0.21134840014E+03  0.25500000000E-02 0. -1.
<mgrwt>
<rscale>  0 0.68380060E+02</rscale>
<asrwt>0</asrwt>
<pdfrwt beam="1">  1        2 0.75205136E-01 0.68380060E+02</pdfrwt>
<pdfrwt beam="2">  1       -2 0.36789573E-03 0.68380060E+02</pdfrwt>
<totfact> 0.45290485E+05</totfact>
</mgrwt>
</event>
<event>
 4    1  0.4834411E-002  0.1718331E+03  0.7818608E-02  0.1175950E+00
         -2   -1    0    0  501    0 -0.00000000000E+00  0.00000000000E+00  0.59602094249E+01  0.59602099704E+01  0.25500000000E-02 0. -1.
          2   -1    0    0    0  501  0.00000000000E+00 -0.00000000000E+00 -0.12384888933E+04  0.12384888933E+04  0.25500000000E-02 0. -1.
          2    1    1    2    0  502 -0.65852582259E+02 -0.55179434658E+02 -0.61216171904E+03  0.61816122724E+03  0.25500000000E-02 0.  1.
         -2    1    1    2  502    0  0.65852582259E+02  0.55179434658E+02 -0.62036696480E+03  0.62628787600E+03  0.25500000000E-02 0.  1.
<mgrwt>
<rscale>  0 0.17183310E+03</rscale>
<asrwt>0</asrwt>
<pdfrwt beam="2">  1        2 0.19053655E+00 0.17183310E+03</pdfrwt>
<pdfrwt beam="1">  1       -2 0.91695633E-03 0.17183310E+03</pdfrwt>
<totfact> 0.44375748E+04</totfact>
</mgrwt>
</event>
<event>
 4    1  0.4834411E-002  0.4359788E+02  0.7818608E-02  0.1483290E+00
         -2   -1    0    0  501    0 -0.00000000000E+00  0.00000000000E+00  0.24247528848E+00  0.24248869670E+00  0.25500000000E-02 0. -1.
          2   -1    0    0    0  501  0.00000000000E+00 -0.00000000000E+00 -0.19597074716E+04  0.19597074716E+04  0.25500000000E-02 0. -1.
          2    1    1    2    0  502  0.22920944044E+01 -0.19948846466E+02 -0.59831870977E+03  0.59865556762E+03  0.25500000000E-02 0. -1.
         -2    1    1    2  502    0 -0.22920944044E+01  0.19948846466E+02 -0.13611462865E+04  0.13612943926E+04  0.25500000000E-02 0. -1.
<mgrwt>
<rscale>  0 0.43597880E+02</rscale>
<asrwt>0</asrwt>
<pdfrwt beam="2">  1        2 0.30148078E+00 0.43597880E+02</pdfrwt>
<pdfrwt beam="1">  1       -2 0.37306491E-04 0.43597880E+02</pdfrwt>
<totfact> 0.13156058E+06</totfact>
</mgrwt>
</event>
<event>
 4    1  0.4834411E-002  0.5446483E+02  0.7818608E-02  0.1422647E+00
         -2   -1    0    0  501    0 -0.00000000000E+00  0.00000000000E+00  0.51497686452E+01  0.51497692765E+01  0.25500000000E-02 0. -1.
          2   -1    0    0    0  501  0.00000000000E+00 -0.00000000000E+00 -0.14400730826E+03  0.14400730828E+03  0.25500000000E-02 0. -1.
          2    1    1    2    0  502 -0.22576762071E+02 -0.15225891816E+02 -0.68723105765E+02  0.73921601983E+02  0.25500000000E-02 0.  1.
         -2    1    1    2  502    0  0.22576762071E+02  0.15225891816E+02 -0.70134433845E+02  0.75235475572E+02  0.25500000000E-02 0.  1.
<mgrwt>
<rscale>  0 0.54464828E+02</rscale>
<asrwt>0</asrwt>
<pdfrwt beam="2">  1        2 0.22154967E-01 0.54464828E+02</pdfrwt>
<pdfrwt beam="1">  1       -2 0.79227226E-03 0.54464828E+02</pdfrwt>
<totfact> 0.53423370E+05</totfact>
</mgrwt>
</event>
<event>
 4    1  0.4834411E-002  0.5450676E+02  0.7818608E-02  0.1422446E+00
          2   -1    0    0    0  501  0.00000000000E+00  0.00000000000E+00  0.93231822939E+03  0.93231822940E+03  0.25500000000E-02 0. -1.
         -2   -1    0    0  501    0 -0.00000000000E+00 -0.00000000000E+00 -0.79666448096E+00  0.79666856203E+00  0.25500000000E-02 0. -1.
          2    1    1    2    0  502 -0.45814476592E+01 -0.25690561790E+02  0.60028813167E+03  0.60085508707E+03  0.25500000000E-02 0. -1.
         -2    1    1    2  502    0  0.45814476592E+01  0.25690561790E+02  0.33123343325E+03  0.33225981089E+03  0.25500000000E-02 0. -1.
<mgrwt>
<rscale>  0 0.54506760E+02</rscale>
<asrwt>0</asrwt>
<pdfrwt beam="1">  1        2 0.14343325E+00 0.54506760E+02</pdfrwt>
<pdfrwt beam="2">  1       -2 0.12256436E-03 0.54506760E+02</pdfrwt>
<totfact> 0.93046145E+05</totfact>
</mgrwt>
</event>
<event>
 4    1  0.4834411E-002  0.4398120E+02  0.7818608E-02  0.1480804E+00
          2   -1    0    0    0  501  0.00000000000E+00  0.00000000000E+00  0.21117052680E+01  0.21117068076E+01  0.25500000000E-02 0. -1.
         -2   -1    0    0  501    0 -0.00000000000E+00 -0.00000000000E+00 -0.22900278460E+03  0.22900278462E+03  0.25500000000E-02 0. -1.
          2    1    1    2    0  502  0.21980799809E+02  0.11632730555E-02 -0.10999570926E+03  0.11217045789E+03  0.25500000000E-02 0.  1.
         -2    1    1    2  502    0 -0.21980799809E+02 -0.11632730555E-02 -0.11689537008E+03  0.11894403354E+03  0.25500000000E-02 0.  1.
<mgrwt>
<rscale>  0 0.43981204E+02</rscale>
<asrwt>0</asrwt>
<pdfrwt beam="1">  1        2 0.32487803E-03 0.43981204E+02</pdfrwt>
<pdfrwt beam="2">  1       -2 0.35231178E-01 0.43981204E+02</pdfrwt>
<totfact> 0.36373177E+05</totfact>
</mgrwt>
</event>
<event>
 4    1  0.4834411E-002  0.4741168E+02  0.7818608E-02  0.1459824E+00
         -2   -1    0    0  501    0 -0.00000000000E+00  0.00000000000E+00  0.16077037395E+02  0.16077037597E+02  0.25500000000E-02 0.  1.
          2   -1    0    0    0  501  0.00000000000E+00 -0.00000000000E+00 -0.34954627312E+02  0.34954627405E+02  0.25500000000E-02 0.  1.
          2    1    1    2    0  502  0.22124128001E+02  0.21877589677E+00 -0.27765637197E+00  0.22126951942E+02  0.25500000000E-02 0.  1.
         -2    1    1    2  502    0 -0.22124128001E+02 -0.21877589677E+00 -0.18599933545E+02  0.28904713060E+02  0.25500000000E-02 0.  1.
<mgrwt>
<rscale>  0 0.47411680E+02</rscale>
<asrwt>0</asrwt>
<pdfrwt beam="2">  1        2 0.53776350E-02 0.47411680E+02</pdfrwt>
<pdfrwt beam="1">  1       -2 0.24733904E-02 0.47411680E+02</pdfrwt>
<totfact> 0.55242180E+05</totfact>
</mgrwt>
</event>
<event>
 4    1  0.4834411E-002  0.4437280E+02  0.7818608E-02  0.1478295E+00
          2   -1    0    0    0  501  0.00000000000E+00  0.00000000000E+00  0.64110065761E+03  0.64110065762E+03  0.25500000000E-02 0.  1.
         -2   -1    0    0  501    0 -0.00000000000E+00 -0.00000000000E+00 -0.76779688226E+00  0.76780111676E+00  0.25500000000E-02 0.  1.
          2    1    1    2    0  502  0.20420175493E+02  0.40809780105E+01  0.20943462665E+03  0.21046733902E+03  0.25500000000E-02 0.  1.
         -2    1    1    2  502    0 -0.20420175493E+02 -0.40809780105E+01  0.43089823408E+03  0.43140111971E+03  0.25500000000E-02 0.  1.
<mgrwt>
<rscale>  0 0.44372805E+02</rscale>
<asrwt>0</asrwt>
<pdfrwt beam="1">  1        2 0.98631338E-01 0.44372805E+02</pdfrwt>
<pdfrwt beam="2">  1       -2 0.11812236E-03 0.44372805E+02</pdfrwt>
<totfact> 0.14440735E+06</totfact>
</mgrwt>
</event>
<event>
 4    1  0.4834411E-002  0.6292196E+02  0.7818608E-02  0.1385963E+00
          2   -1    0    0    0  501  0.00000000000E+00  0.00000000000E+00  0.33729093217E+03  0.33729093218E+03  0.25500000000E-02 0.  1.
         -2   -1    0    0  501    0 -0.00000000000E+00 -0.00000000000E+00 -0.29345380192E+01  0.29345391271E+01  0.25500000000E-02 0.  1.
          2    1    1    2    0  502 -0.92087683515E+01 -0.27606306139E+02  0.10254495825E+03  0.10659445587E+03  0.25500000000E-02 0. -1.
         -2    1    1    2  502    0  0.92087683515E+01  0.27606306139E+02  0.23181143590E+03  0.23363101543E+03  0.25500000000E-02 0. -1.
<mgrwt>
<rscale>  0 0.62921960E+02</rscale>
<asrwt>0</asrwt>
<pdfrwt beam="1">  1        2 0.51890886E-01 0.62921960E+02</pdfrwt>
<pdfrwt beam="2">  1       -2 0.45146770E-03 0.62921960E+02</pdfrwt>
<totfact> 0.49367709E+05</totfact>
</mgrwt>
</event>
<event>
 4    1  0.4834411E-002  0.5713596E+02  0.7818608E-02  0.1410260E+00
          2   -1    0    0    0  501  0.00000000000E+00  0.00000000000E+00  0.15259144195E+04  0.15259144195E+04  0.25500000000E-02 0. -1.
         -2   -1    0    0  501    0 -0.00000000000E+00 -0.00000000000E+00 -0.53484313045E+00  0.53484920930E+00  0.25500000000E-02 0. -1.
          2    1    1    2    0  502 -0.70428293561E+01  0.23441004976E+02  0.36909434758E+03  0.36990501427E+03  0.25500000000E-02 0.  1.
         -2    1    1    2  502    0  0.70428293561E+01 -0.23441004976E+02  0.11562852288E+04  0.11565442545E+04  0.25500000000E-02 0.  1.
<mgrwt>
<rscale>  0 0.57135960E+02</rscale>
<asrwt>0</asrwt>
<pdfrwt beam="1">  1        2 0.23474941E+00 0.57135960E+02</pdfrwt>
<pdfrwt beam="2">  1       -2 0.82286361E-04 0.57135960E+02</pdfrwt>
<totfact> 0.78066371E+05</totfact>
</mgrwt>
</event>
<event>
 4    1  0.4834411E-002  0.5010101E+02  0.7818608E-02  0.1444797E+00
          2   -1    0    0    0  501  0.00000000000E+00  0.00000000000E+00  0.79390615039E+03  0.79390615039E+03  0.25500000000E-02 0. -1.
         -2   -1    0    0  501    0 -0.00000000000E+00 -0.00000000000E+00 -0.79042868023E+00  0.79043279350E+00  0.25500000000E-02 0. -1.
          2    1    1    2    0  502 -0.10196256959E+02 -0.19837376480E+02  0.57744087057E+03  0.57787147721E+03  0.25500000000E-02 0. -1.
         -2    1    1    2  502    0  0.10196256959E+02  0.19837376480E+02  0.21567485113E+03  0.21682510597E+03  0.25500000000E-02 0. -1.
<mgrwt>
<rscale>  0 0.50101011E+02</rscale>
<asrwt>0</asrwt>
<pdfrwt beam="1">  1        2 0.12214059E+00 0.50101011E+02</pdfrwt>
<pdfrwt beam="2">  1       -2 0.12160355E-03 0.50101011E+02</pdfrwt>
<totfact> 0.11226167E+06</totfact>
</mgrwt>
</event>
<event>
 4    1  0.4834411E-002  0.1066807E+03  0.7818608E-02  0.1266843E+00
         -2   -1    0    0  501    0 -0.00000000000E+00  0.00000000000E+00  0.21960263560E+01  0.21960278365E+01  0.25500000000E-02 0. -1.
          2   -1    0    0    0  501  0.00000000000E+00 -0.00000000000E+00 -0.12956093523E+04  0.12956093523E+04  0.25500000000E-02 0. -1.
          2    1    1    2    0  502  0.37028057688E+02 -0.36043373331E+02 -0.48577849333E+03  0.48851913618E+03  0.25500000000E-02 0. -1.
         -2    1    1    2  502    0 -0.37028057688E+02  0.36043373331E+02 -0.80763483261E+03  0.80928624396E+03  0.25500000000E-02 0. -1.
<mgrwt>
<rscale>  0 0.10668071E+03</rscale>
<asrwt>0</asrwt>
<pdfrwt beam="2">  1        2 0.19932391E+00 0.10668071E+03</pdfrwt>
<pdfrwt beam="1">  1       -2 0.33785136E-03 0.10668071E+03</pdfrwt>
<totfact> 0.16207552E+05</totfact>
</mgrwt>
</event>
<event>
 4    1  0.4834411E-002  0.5192817E+02  0.7818608E-02  0.1435211E+00
          2   -1    0    0    0  501  0.00000000000E+00  0.00000000000E+00  0.57117457434E+03  0.57117457435E+03  0.25500000000E-02 0. -1.
         -2   -1    0    0  501    0 -0.00000000000E+00 -0.00000000000E+00 -0.11802570940E+01  0.11802598487E+01  0.25500000000E-02 0. -1.
          2    1    1    2    0  502  0.22841768814E+01  0.25232033382E+02  0.22239361072E+03  0.22383205997E+03  0.25500000000E-02 0.  1.
         -2    1    1    2  502    0 -0.22841768814E+01 -0.25232033382E+02  0.34760070653E+03  0.34852277423E+03  0.25500000000E-02 0.  1.
<mgrwt>
<rscale>  0 0.51928167E+02</rscale>
<asrwt>0</asrwt>
<pdfrwt beam="1">  1        2 0.87873128E-01 0.51928167E+02</pdfrwt>
<pdfrwt beam="2">  1       -2 0.18157799E-03 0.51928167E+02</pdfrwt>
<totfact> 0.95131960E+05</totfact>
</mgrwt>
</event>
<event>
 4    1  0.4834411E-002  0.6872642E+02  0.7818608E-02  0.1364478E+00
         -2   -1    0    0  501    0 -0.00000000000E+00  0.00000000000E+00  0.12018463195E+01  0.12018490247E+01  0.25500000000E-02 0.  1.
          2   -1    0    0    0  501  0.00000000000E+00 -0.00000000000E+00 -0.98251236933E+03  0.98251236934E+03  0.25500000000E-02 0.  1.
          2    1    1    2    0  502 -0.21851040849E+02 -0.22214202859E+02 -0.28328687242E+03  0.28499542257E+03  0.25500000000E-02 0. -1.
         -2    1    1    2  502    0  0.21851040849E+02  0.22214202859E+02 -0.69802365059E+03  0.69871879579E+03  0.25500000000E-02 0. -1.
<mgrwt>
<rscale>  0 0.68726420E+02</rscale>
<asrwt>0</asrwt>
<pdfrwt beam="2">  1        2 0.15115511E+00 0.68726420E+02</pdfrwt>
<pdfrwt beam="1">  1       -2 0.18490043E-03 0.68726420E+02</pdfrwt>
<totfact> 0.52022415E+05</totfact>
</mgrwt>
</event>
<event>
 4    1  0.4834411E-002  0.4682195E+02  0.7818608E-02  0.1463278E+00
         -2   -1    0    0  501    0 -0.00000000000E+00  0.00000000000E+00  0.70358282800E+00  0.70358744898E+00  0.25500000000E-02 0. -1.
          2   -1    0    0    0  501  0.00000000000E+00 -0.00000000000E+00 -0.77897291235E+03  0.77897291235E+03  0.25500000000E-02 0. -1.
          2    1    1    2    0  502 -0.21675044036E+02  0.11281719391E+01 -0.53524867001E+03  0.53568854670E+03  0.25500000000E-02 0.  1.
         -2    1    1    2  502    0  0.21675044036E+02 -0.11281719391E+01 -0.24302065951E+03  0.24398795311E+03  0.25500000000E-02 0.  1.
<mgrwt>
<rscale>  0 0.46821951E+02</rscale>
<asrwt>0</asrwt>
<pdfrwt beam="2">  1        2 0.11984130E+00 0.46821951E+02</pdfrwt>
<pdfrwt beam="1">  1       -2 0.10824449E-03 0.46821951E+02</pdfrwt>
<totfact> 0.13214203E+06</totfact>
</mgrwt>
</event>
<event>
 4    1  0.4834411E-002  0.6713501E+02  0.7818608E-02  0.1370116E+00
          2   -1    0    0    0  501  0.00000000000E+00  0.00000000000E+00  0.60987376091E+03  0.60987376092E+03  0.25500000000E-02 0. -1.
         -2   -1    0    0  501    0 -0.00000000000E+00 -0.00000000000E+00 -0.18475572753E+01  0.18475590351E+01  0.25500000000E-02 0. -1.
          2    1    1    2    0  502  0.19804759773E+02 -0.25426046517E+02  0.21850525377E+03  0.22086932400E+03  0.25500000000E-02 0.  1.
         -2    1    1    2  502    0 -0.19804759773E+02  0.25426046517E+02  0.38952094986E+03  0.39085199595E+03  0.25500000000E-02 0.  1.
<mgrwt>
<rscale>  0 0.67135006E+02</rscale>
<asrwt>0</asrwt>
<pdfrwt beam="1">  1        2 0.93826848E-01 0.67135006E+02</pdfrwt>
<pdfrwt beam="2">  1       -2 0.28423937E-03 0.67135006E+02</pdfrwt>
<totfact> 0.50713435E+05</totfact>
</mgrwt>
</event>
<event>
 4    1  0.4834411E-002  0.6899913E+02  0.7818608E-02  0.1363530E+00
         -2   -1    0    0  501    0 -0.00000000000E+00  0.00000000000E+00  0.24415643103E+01  0.24415656419E+01  0.25500000000E-02 0. -1.
          2   -1    0    0    0  501  0.00000000000E+00 -0.00000000000E+00 -0.48748244965E+03  0.48748244965E+03  0.25500000000E-02 0. -1.
          2    1    1    2    0  502  0.13149440035E+01  0.34269835572E+02 -0.21588730485E+03  0.21859432543E+03  0.25500000000E-02 0. -1.
         -2    1    1    2  502    0 -0.13149440035E+01 -0.34269835572E+02 -0.26915358049E+03  0.27132968987E+03  0.25500000000E-02 0. -1.
<mgrwt>
<rscale>  0 0.68999133E+02</rscale>
<asrwt>0</asrwt>
<pdfrwt beam="2">  1        2 0.74997223E-01 0.68999133E+02</pdfrwt>
<pdfrwt beam="1">  1       -2 0.37562577E-03 0.68999133E+02</pdfrwt>
<totfact> 0.44214847E+05</totfact>
</mgrwt>
</event>
<event>
 4    1  0.4834411E-002  0.1040825E+03  0.7818608E-02  0.1271938E+00
         -2   -1    0    0  501    0 -0.00000000000E+00  0.00000000000E+00  0.99939712221E+00  0.99940037542E+00  0.25500000000E-02 0. -1.
          2   -1    0    0    0  501  0.00000000000E+00 -0.00000000000E+00 -0.27099208626E+04  0.27099208626E+04  0.25500000000E-02 0. -1.
          2    1    1    2    0  502  0.48259343549E+02 -0.89618780349E+01 -0.18048451597E+04  0.18055124840E+04  0.25500000000E-02 0.  1.
         -2    1    1    2  502    0 -0.48259343549E+02  0.89618780349E+01 -0.90407630585E+03  0.90540777902E+03  0.25500000000E-02 0.  1.
<mgrwt>
<rscale>  0 0.10408250E+03</rscale>
<asrwt>0</asrwt>
<pdfrwt beam="2">  1        2 0.41690502E+00 0.10408250E+03</pdfrwt>
<pdfrwt beam="1">  1       -2 0.15375582E-03 0.10408250E+03</pdfrwt>
<totfact> 0.90048506E+04</totfact>
</mgrwt>
</event>
<event>
 4    1  0.4834411E-002  0.4792278E+02  0.7818608E-02  0.1456879E+00
          2   -1    0    0    0  501  0.00000000000E+00  0.00000000000E+00  0.16567006024E+01  0.16567025649E+01  0.25500000000E-02 0. -1.
         -2   -1    0    0  501    0 -0.00000000000E+00 -0.00000000000E+00 -0.34656101247E+03  0.34656101248E+03  0.25500000000E-02 0. -1.
          2    1    1    2    0  502 -0.21613724127E+02 -0.50794439625E+01 -0.23792659443E+03  0.23896028574E+03  0.25500000000E-02 0.  1.
         -2    1    1    2  502    0  0.21613724127E+02  0.50794439625E+01 -0.10697771745E+03  0.10925742930E+03  0.25500000000E-02 0.  1.
<mgrwt>
<rscale>  0 0.47922779E+02</rscale>
<asrwt>0</asrwt>
<pdfrwt beam="1">  1        2 0.25487744E-03 0.47922779E+02</pdfrwt>
<pdfrwt beam="2">  1       -2 0.53317021E-01 0.47922779E+02</pdfrwt>
<totfact> 0.23699743E+05</totfact>
</mgrwt>
</event>
<event>
 4    1  0.4834411E-002  0.7436550E+02  0.7818608E-02  0.1345847E+00
         -2   -1    0    0  501    0 -0.00000000000E+00  0.00000000000E+00  0.16512281534E+01  0.16512301223E+01  0.25500000000E-02 0. -1.
          2   -1    0    0    0  501  0.00000000000E+00 -0.00000000000E+00 -0.83728959643E+03  0.83728959644E+03  0.25500000000E-02 0. -1.
          2    1    1    2    0  502  0.27562180095E+02  0.24548934677E+02 -0.46856381064E+03  0.47001528551E+03  0.25500000000E-02 0.  1.
         -2    1    1    2  502    0 -0.27562180095E+02 -0.24548934677E+02 -0.36707455764E+03  0.36892554105E+03  0.25500000000E-02 0.  1.
<mgrwt>
<rscale>  0 0.74365502E+02</rscale>
<asrwt>0</asrwt>
<pdfrwt beam="2">  1        2 0.12881345E+00 0.74365502E+02</pdfrwt>
<pdfrwt beam="1">  1       -2 0.25403592E-03 0.74365502E+02</pdfrwt>
<totfact> 0.41779557E+05</totfact>
</mgrwt>
</event>
<event>
 4    1  0.4834411E-002  0.5189872E+02  0.7818608E-02  0.1435361E+00
          2   -1    0    0    0  501  0.00000000000E+00  0.00000000000E+00  0.27905229861E+02  0.27905229977E+02  0.25500000000E-02 0.  1.
         -2   -1    0    0  501    0 -0.00000000000E+00 -0.00000000000E+00 -0.24130580221E+02  0.24130580356E+02  0.25500000000E-02 0.  1.
          2    1    1    2    0  502 -0.18286718001E+02  0.13667031902E+02 -0.10481287136E+02  0.25120692721E+02  0.25500000000E-02 0. -1.
         -2    1    1    2  502    0  0.18286718001E+02 -0.13667031902E+02  0.14255936776E+02  0.26915117612E+02  0.25500000000E-02 0. -1.
<mgrwt>
<rscale>  0 0.51898724E+02</rscale>
<asrwt>0</asrwt>
<pdfrwt beam="1">  1        2 0.42931123E-02 0.51898724E+02</pdfrwt>
<pdfrwt beam="2">  1       -2 0.37123970E-02 0.51898724E+02</pdfrwt>
<totfact> 0.42066607E+05</totfact>
</mgrwt>
</event>
<event>
 4    1  0.4834411E-002  0.7378925E+02  0.7818608E-02  0.1347662E+00
         -2   -1    0    0  501    0 -0.00000000000E+00  0.00000000000E+00  0.65330600763E+02  0.65330600813E+02  0.25500000000E-02 0. -1.
          2   -1    0    0    0  501  0.00000000000E+00 -0.00000000000E+00 -0.20835767328E+02  0.20835767484E+02  0.25500000000E-02 0. -1.
          2    1    1    2    0  502 -0.27711871150E+02 -0.24355924605E+02  0.22519610285E+02  0.43223740234E+02  0.25500000000E-02 0.  1.
         -2    1    1    2  502    0  0.27711871150E+02  0.24355924605E+02  0.21975223150E+02  0.42942628063E+02  0.25500000000E-02 0.  1.
<mgrwt>
<rscale>  0 0.73789246E+02</rscale>
<asrwt>0</asrwt>
<pdfrwt beam="2">  1        2 0.32055027E-02 0.73789246E+02</pdfrwt>
<pdfrwt beam="1">  1       -2 0.10050862E-01 0.73789246E+02</pdfrwt>
<totfact> 0.15039841E+05</totfact>
</mgrwt>
</event>
<event>
 4    1  0.4834411E-002  0.1028331E+03  0.7818608E-02  0.1274449E+00
          2   -1    0    0    0  501  0.00000000000E+00  0.00000000000E+00  0.11040051494E+04  0.11040051494E+04  0.25500000000E-02 0. -1.
         -2   -1    0    0  501    0 -0.00000000000E+00 -0.00000000000E+00 -0.23946093594E+01  0.23946107171E+01  0.25500000000E-02 0. -1.
          2    1    1    2    0  502 -0.43975917728E+02  0.24965546380E+02  0.45073798624E+03  0.45356575278E+03  0.25500000000E-02 0. -1.
         -2    1    1    2  502    0  0.43975917728E+02 -0.24965546380E+02  0.65087255381E+03  0.65283400735E+03  0.25500000000E-02 0. -1.
<mgrwt>
<rscale>  0 0.10283310E+03</rscale>
<asrwt>0</asrwt>
<pdfrwt beam="1">  1        2 0.16984749E+00 0.10283310E+03</pdfrwt>
<pdfrwt beam="2">  1       -2 0.36840037E-03 0.10283310E+03</pdfrwt>
<totfact> 0.18190798E+05</totfact>
</mgrwt>
</event>
<event>
 4    1  0.4834411E-002  0.4384722E+02  0.7818608E-02  0.1481669E+00
         -2   -1    0    0  501    0 -0.00000000000E+00  0.00000000000E+00  0.57199119683E+03  0.57199119684E+03  0.25500000000E-02 0. -1.
          2   -1    0    0    0  501  0.00000000000E+00 -0.00000000000E+00 -0.84029881562E+00  0.84030268477E+00  0.25500000000E-02 0. -1.
          2    1    1    2    0  502  0.21896456481E+02 -0.60777931157E+00  0.27374218185E+03  0.27461719963E+03  0.25500000000E-02 0.  1.
         -2    1    1    2  502    0 -0.21896456481E+02  0.60777931157E+00  0.29740871617E+03  0.29821429989E+03  0.25500000000E-02 0.  1.
<mgrwt>
<rscale>  0 0.43847218E+02</rscale>
<asrwt>0</asrwt>
<pdfrwt beam="2">  1        2 0.12927724E-03 0.43847218E+02</pdfrwt>
<pdfrwt beam="1">  1       -2 0.87998507E-01 0.43847218E+02</pdfrwt>
<totfact> 0.20474200E+05</totfact>
</mgrwt>
</event>
<event>
 4    1  0.4834411E-002  0.6256916E+02  0.7818608E-02  0.1387356E+00
         -2   -1    0    0  501    0 -0.00000000000E+00  0.00000000000E+00  0.43759808477E+00  0.43760551447E+00  0.25500000000E-02 0. -1.
          2   -1    0    0    0  501  0.00000000000E+00 -0.00000000000E+00 -0.22365653044E+04  0.22365653044E+04  0.25500000000E-02 0. -1.
          2    1    1    2    0  502  0.99115660736E+01  0.23158772827E+02 -0.17813250294E+04  0.17815031373E+04  0.25500000000E-02 0.  1.
         -2    1    1    2  502    0 -0.99115660736E+01 -0.23158772827E+02 -0.45480267691E+03  0.45549977259E+03  0.25500000000E-02 0.  1.
<mgrwt>
<rscale>  0 0.62569162E+02</rscale>
<asrwt>0</asrwt>
<pdfrwt beam="2">  1        2 0.34407782E+00 0.62569162E+02</pdfrwt>
<pdfrwt beam="1">  1       -2 0.67325145E-04 0.62569162E+02</pdfrwt>
<totfact> 0.46436614E+05</totfact>
</mgrwt>
</event>
<event>
 4    1  0.4834411E-002  0.6285777E+02  0.7818608E-02  0.1386216E+00
         -2   -1    0    0  501    0 -0.00000000000E+00  0.00000000000E+00  0.18562490735E+03  0.18562490736E+03  0.25500000000E-02 0. -1.
          2   -1    0    0    0  501  0.00000000000E+00 -0.00000000000E+00 -0.53213473060E+01  0.53213479170E+01  0.25500000000E-02 0. -1.
          2    1    1    2    0  502 -0.19199514981E+02  0.24756513017E+02  0.97757293604E+02  0.10265473575E+03  0.25500000000E-02 0.  1.
         -2    1    1    2  502    0  0.19199514981E+02 -0.24756513017E+02  0.82546266435E+02  0.88291519531E+02  0.25500000000E-02 0.  1.
<mgrwt>
<rscale>  0 0.62857765E+02</rscale>
<asrwt>0</asrwt>
<pdfrwt beam="2">  1        2 0.81866879E-03 0.62857765E+02</pdfrwt>
<pdfrwt beam="1">  1       -2 0.28557681E-01 0.62857765E+02</pdfrwt>
<totfact> 0.16470850E+05</totfact>
</mgrwt>
</event>
<event>
 4    1  0.4834411E-002  0.6716621E+02  0.7818608E-02  0.1370003E+00
          2   -1    0    0    0  501  0.00000000000E+00  0.00000000000E+00  0.21678504196E+03  0.21678504197E+03  0.25500000000E-02 0.  1.
         -2   -1    0    0  501    0 -0.00000000000E+00 -0.00000000000E+00 -0.52025038384E+01  0.52025044633E+01  0.25500000000E-02 0.  1.
          2    1    1    2    0  502 -0.21460835568E+02  0.19815199974E+02  0.16056095309E+03  0.16319629063E+03  0.25500000000E-02 0.  1.
         -2    1    1    2  502    0  0.21460835568E+02 -0.19815199974E+02  0.51021585032E+02  0.58791255804E+02  0.25500000000E-02 0.  1.
<mgrwt>
<rscale>  0 0.67166214E+02</rscale>
<asrwt>0</asrwt>
<pdfrwt beam="1">  1        2 0.33351547E-01 0.67166214E+02</pdfrwt>
<pdfrwt beam="2">  1       -2 0.80038520E-03 0.67166214E+02</pdfrwt>
<totfact> 0.35672874E+05</totfact>
</mgrwt>
</event>
<event>
 4    1  0.4834411E-002  0.6652139E+02  0.7818608E-02  0.1372338E+00
          2   -1    0    0    0  501  0.00000000000E+00  0.00000000000E+00  0.18399218760E+04  0.18399218760E+04  0.25500000000E-02 0.  1.
         -2   -1    0    0  501    0 -0.00000000000E+00 -0.00000000000E+00 -0.60125853142E+00  0.60126393880E+00  0.25500000000E-02 0.  1.
          2    1    1    2    0  502 -0.21230906425E+02 -0.17435202500E+02  0.14384184305E+04  0.14386807564E+04  0.25500000000E-02 0. -1.
         -2    1    1    2  502    0  0.21230906425E+02  0.17435202500E+02  0.40090218696E+03  0.40184238352E+03  0.25500000000E-02 0. -1.
<mgrwt>
<rscale>  0 0.66521386E+02</rscale>
<asrwt>0</asrwt>
<pdfrwt beam="1">  1        2 0.28306063E+00 0.66521386E+02</pdfrwt>
<pdfrwt beam="2">  1       -2 0.92503125E-04 0.66521386E+02</pdfrwt>
<totfact> 0.47892964E+05</totfact>
</mgrwt>
</event>
<event>
 4    1  0.4834411E-002  0.5550463E+02  0.7818608E-02  0.1417727E+00
         -2   -1    0    0  501    0 -0.00000000000E+00  0.00000000000E+00  0.24357976860E+02  0.24357976993E+02  0.25500000000E-02 0. -1.
          2   -1    0    0    0  501  0.00000000000E+00 -0.00000000000E+00 -0.31619665183E+02  0.31619665286E+02  0.25500000000E-02 0. -1.
          2    1    1    2    0  502 -0.44289487455E+01  0.26231340642E+02  0.43417280148E+01  0.26954580827E+02  0.25500000000E-02 0.  1.
         -2    1    1    2  502    0  0.44289487455E+01 -0.26231340642E+02 -0.11603416338E+02  0.29023061453E+02  0.25500000000E-02 0.  1.
<mgrwt>
<rscale>  0 0.55504633E+02</rscale>
<asrwt>0</asrwt>
<pdfrwt beam="2">  1        2 0.48645639E-02 0.55504633E+02</pdfrwt>
<pdfrwt beam="1">  1       -2 0.37473811E-02 0.55504633E+02</pdfrwt>
<totfact> 0.35947370E+05</totfact>
</mgrwt>
</event>
<event>
 4    1  0.4834411E-002  0.4334842E+02  0.7818608E-02  0.1484924E+00
         -2   -1    0    0  501    0 -0.00000000000E+00  0.00000000000E+00  0.49284266546E+00  0.49284926235E+00  0.25500000000E-02 0. -1.
          2   -1    0    0    0  501  0.00000000000E+00 -0.00000000000E+00 -0.95318096694E+03  0.95318096695E+03  0.25500000000E-02 0. -1.
          2    1    1    2    0  502  0.73051880297E+01  0.19184548574E+02 -0.32335374459E+03  0.32400471729E+03  0.25500000000E-02 0. -1.
         -2    1    1    2  502    0 -0.73051880297E+01 -0.19184548574E+02 -0.62933437969E+03  0.62966909892E+03  0.25500000000E-02 0. -1.
<mgrwt>
<rscale>  0 0.43348421E+02</rscale>
<asrwt>0</asrwt>
<pdfrwt beam="2">  1        2 0.14664175E+00 0.43348421E+02</pdfrwt>
<pdfrwt beam="1">  1       -2 0.75823219E-04 0.43348421E+02</pdfrwt>
<totfact> 0.16371120E+06</totfact>
</mgrwt>
</event>
<event>
 4    1  0.4834411E-002  0.5146698E+02  0.7818608E-02  0.1437586E+00
          2   -1    0    0    0  501  0.00000000000E+00  0.00000000000E+00  0.62484692894E+01  0.62484698097E+01  0.25500000000E-02 0.  1.
         -2   -1    0    0  501    0 -0.00000000000E+00 -0.00000000000E+00 -0.10597993537E+03  0.10597993540E+03  0.25500000000E-02 0.  1.
          2    1    1    2    0  502 -0.12220847323E+02 -0.22369840082E+02 -0.42170521320E+02  0.49275873706E+02  0.25500000000E-02 0.  1.
         -2    1    1    2  502    0  0.12220847323E+02  0.22369840082E+02 -0.57560944764E+02  0.62952531508E+02  0.25500000000E-02 0.  1.
<mgrwt>
<rscale>  0 0.51466976E+02</rscale>
<asrwt>0</asrwt>
<pdfrwt beam="1">  1        2 0.96130309E-03 0.51466976E+02</pdfrwt>
<pdfrwt beam="2">  1       -2 0.16304604E-01 0.51466976E+02</pdfrwt>
<totfact> 0.32403112E+05</totfact>
</mgrwt>
</event>
<event>
 4    1  0.4834411E-002  0.4988330E+02  0.7818608E-02  0.1445972E+00
          2   -1    0    0    0  501  0.00000000000E+00  0.00000000000E+00  0.70140655699E+02  0.70140655746E+02  0.25500000000E-02 0.  1.
         -2   -1    0    0  501    0 -0.00000000000E+00 -0.00000000000E+00 -0.88691203806E+01  0.88691207472E+01  0.25500000000E-02 0.  1.
          2    1    1    2    0  502 -0.12471259821E+02 -0.17348136476E+02  0.51017930325E+02  0.55311114451E+02  0.25500000000E-02 0.  1.
         -2    1    1    2  502    0  0.12471259821E+02  0.17348136476E+02  0.10253604994E+02  0.23698662042E+02  0.25500000000E-02 0.  1.
<mgrwt>
<rscale>  0 0.49883301E+02</rscale>
<asrwt>0</asrwt>
<pdfrwt beam="1">  1        2 0.10790870E-01 0.49883301E+02</pdfrwt>
<pdfrwt beam="2">  1       -2 0.13644800E-02 0.49883301E+02</pdfrwt>
<totfact> 0.55311923E+05</totfact>
</mgrwt>
</event>
<event>
 4    1  0.4834411E-002  0.6525106E+02  0.7818608E-02  0.1377030E+00
          2   -1    0    0    0  501  0.00000000000E+00  0.00000000000E+00  0.68488457529E+01  0.68488462276E+01  0.25500000000E-02 0. -1.
         -2   -1    0    0  501    0 -0.00000000000E+00 -0.00000000000E+00 -0.15541672797E+03  0.15541672799E+03  0.25500000000E-02 0. -1.
          2    1    1    2    0  502 -0.17088981864E+01 -0.29494961182E+02 -0.39866201562E+02  0.49620430284E+02  0.25500000000E-02 0.  1.
         -2    1    1    2  502    0  0.17088981864E+01  0.29494961182E+02 -0.10870168066E+03  0.11264514394E+03  0.25500000000E-02 0.  1.
<mgrwt>
<rscale>  0 0.65251061E+02</rscale>
<asrwt>0</asrwt>
<pdfrwt beam="1">  1        2 0.10536687E-02 0.65251061E+02</pdfrwt>
<pdfrwt beam="2">  1       -2 0.23910263E-01 0.65251061E+02</pdfrwt>
<totfact> 0.16024737E+05</totfact>
</mgrwt>
</event>
<event>
 4    1  0.4834411E-002  0.4580846E+02  0.7818608E-02  0.1469357E+00
          2   -1    0    0    0  501  0.00000000000E+00  0.00000000000E+00  0.41989256926E+02  0.41989257003E+02  0.25500000000E-02 0. -1.
         -2   -1    0    0  501    0 -0.00000000000E+00 -0.00000000000E+00 -0.12493763033E+02  0.12493763293E+02  0.25500000000E-02 0. -1.
          2    1    1    2    0  502  0.61548149821E+01 -0.22041516959E+02  0.15872066556E+02  0.27850183493E+02  0.25500000000E-02 0. -1.
         -2    1    1    2  502    0 -0.61548149821E+01  0.22041516959E+02  0.13623427336E+02  0.26632836804E+02  0.25500000000E-02 0. -1.
<mgrwt>
<rscale>  0 0.45808464E+02</rscale>
<asrwt>0</asrwt>
<pdfrwt beam="1">  1        2 0.64598855E-02 0.45808464E+02</pdfrwt>
<pdfrwt beam="2">  1       -2 0.19221175E-02 0.45808464E+02</pdfrwt>
<totfact> 0.62209417E+05</totfact>
</mgrwt>
</event>
<event>
 4    1  0.4834411E-002  0.1980427E+03  0.7818608E-02  0.1151401E+00
          2   -1    0    0    0  501  0.00000000000E+00  0.00000000000E+00  0.52113740497E+03  0.52113740498E+03  0.25500000000E-02 0. -1.
         -2   -1    0    0  501    0 -0.00000000000E+00 -0.00000000000E+00 -0.18815059691E+02  0.18815059864E+02  0.25500000000E-02 0. -1.
          2    1    1    2    0  502  0.67332433599E+02  0.60640875749E+02  0.36002310686E+03  0.37125141064E+03  0.25500000000E-02 0. -1.
         -2    1    1    2  502    0 -0.67332433599E+02 -0.60640875749E+02  0.14229923842E+03  0.16870105420E+03  0.25500000000E-02 0. -1.
<mgrwt>
<rscale>  0 0.19804274E+03</rscale>
<asrwt>0</asrwt>
<pdfrwt beam="1">  1        2 0.80174991E-01 0.19804274E+03</pdfrwt>
<pdfrwt beam="2">  1       -2 0.28946244E-02 0.19804274E+03</pdfrwt>
<totfact> 0.25710964E+04</totfact>
</mgrwt>
</event>
<event>
 4    1  0.4834411E-002  0.6496698E+02  0.7818608E-02  0.1378096E+00
         -2   -1    0    0  501    0 -0.00000000000E+00  0.00000000000E+00  0.12493002168E+01  0.12493028193E+01  0.25500000000E-02 0.  1.
          2   -1    0    0    0  501  0.00000000000E+00 -0.00000000000E+00 -0.84461367592E+03  0.84461367592E+03  0.25500000000E-02 0.  1.
          2    1    1    2    0  502 -0.10514650215E+02 -0.30719619835E+02 -0.43419912002E+03  0.43541144765E+03  0.25500000000E-02 0. -1.
         -2    1    1    2  502    0  0.10514650215E+02  0.30719619835E+02 -0.40916525569E+03  0.41045153110E+03  0.25500000000E-02 0. -1.
<mgrwt>
<rscale>  0 0.64966981E+02</rscale>
<asrwt>0</asrwt>
<pdfrwt beam="2">  1        2 0.12994011E+00 0.64966981E+02</pdfrwt>
<pdfrwt beam="1">  1       -2 0.19220091E-03 0.64966981E+02</pdfrwt>
<totfact> 0.59128912E+05</totfact>
</mgrwt>
</event>
<event>
 4    1  0.4834411E-002  0.4382991E+02  0.7818608E-02  0.1481781E+00
         -2   -1    0    0  501    0 -0.00000000000E+00  0.00000000000E+00  0.13005133937E+02  0.13005134187E+02  0.25500000000E-02 0. -1.
          2   -1    0    0    0  501  0.00000000000E+00 -0.00000000000E+00 -0.36928889325E+02  0.36928889413E+02  0.25500000000E-02 0. -1.
          2    1    1    2    0  502  0.98363608701E+01  0.19173776074E+02 -0.74222872736E+01  0.22792060876E+02  0.25500000000E-02 0.  1.
         -2    1    1    2  502    0 -0.98363608701E+01 -0.19173776074E+02 -0.16501468114E+02  0.27141962724E+02  0.25500000000E-02 0.  1.
<mgrwt>
<rscale>  0 0.43829906E+02</rscale>
<asrwt>0</asrwt>
<pdfrwt beam="2">  1        2 0.56813676E-02 0.43829906E+02</pdfrwt>
<pdfrwt beam="1">  1       -2 0.20007899E-02 0.43829906E+02</pdfrwt>
<totfact> 0.68159666E+05</totfact>
</mgrwt>
</event>
<event>
 4    1  0.4834411E-002  0.4695318E+02  0.7818608E-02  0.1462504E+00
         -2   -1    0    0  501    0 -0.00000000000E+00  0.00000000000E+00  0.40988386957E+02  0.40988387037E+02  0.25500000000E-02 0. -1.
          2   -1    0    0    0  501  0.00000000000E+00 -0.00000000000E+00 -0.13446500390E+02  0.13446500632E+02  0.25500000000E-02 0. -1.
          2    1    1    2    0  502 -0.18681480377E+02  0.11727576258E+02  0.23090266341E+02  0.31932650378E+02  0.25500000000E-02 0. -1.
         -2    1    1    2  502    0  0.18681480377E+02 -0.11727576258E+02  0.44516202257E+01  0.22502237291E+02  0.25500000000E-02 0. -1.
<mgrwt>
<rscale>  0 0.46953184E+02</rscale>
<asrwt>0</asrwt>
<pdfrwt beam="2">  1        2 0.20686924E-02 0.46953184E+02</pdfrwt>
<pdfrwt beam="1">  1       -2 0.63059056E-02 0.46953184E+02</pdfrwt>
<totfact> 0.48966665E+05</totfact>
</mgrwt>
</event>
<event>
 4    1  0.4834411E-002  0.5508846E+02  0.7818608E-02  0.1419681E+00
         -2   -1    0    0  501    0 -0.00000000000E+00  0.00000000000E+00  0.13182473074E+01  0.13182497738E+01  0.25500000000E-02 0. -1.
          2   -1    0    0    0  501  0.00000000000E+00 -0.00000000000E+00 -0.57552465188E+03  0.57552465188E+03  0.25500000000E-02 0. -1.
          2    1    1    2    0  502  0.25300205645E+02  0.57792738157E+01 -0.38374750474E+03  0.38462403437E+03  0.25500000000E-02 0.  1.
         -2    1    1    2  502    0 -0.25300205645E+02 -0.57792738157E+01 -0.19045889983E+03  0.19221886729E+03  0.25500000000E-02 0.  1.
<mgrwt>
<rscale>  0 0.55088457E+02</rscale>
<asrwt>0</asrwt>
<pdfrwt beam="2">  1        2 0.88542054E-01 0.55088457E+02</pdfrwt>
<pdfrwt beam="1">  1       -2 0.20280793E-03 0.55088457E+02</pdfrwt>
<totfact> 0.82285972E+05</totfact>
</mgrwt>
</event>
<event>
 4    1  0.4834411E-002  0.4654857E+02  0.7818608E-02  0.1464899E+00
         -2   -1    0    0  501    0 -0.00000000000E+00  0.00000000000E+00  0.10308085395E+02  0.10308085711E+02  0.25500000000E-02 0. -1.
          2   -1    0    0    0  501  0.00000000000E+00 -0.00000000000E+00 -0.52550240287E+02  0.52550240349E+02  0.25500000000E-02 0. -1.
          2    1    1    2    0  502 -0.19064567737E+02  0.11775049565E+02 -0.12625167518E+02  0.25719727771E+02  0.25500000000E-02 0. -1.
         -2    1    1    2  502    0  0.19064567737E+02 -0.11775049565E+02 -0.29616987374E+02  0.37138598289E+02  0.25500000000E-02 0. -1.
<mgrwt>
<rscale>  0 0.46548571E+02</rscale>
<asrwt>0</asrwt>
<pdfrwt beam="2">  1        2 0.80846522E-02 0.46548571E+02</pdfrwt>
<pdfrwt beam="1">  1       -2 0.15858594E-02 0.46548571E+02</pdfrwt>
<totfact> 0.62178132E+05</totfact>
</mgrwt>
</event>
<event>
 4    1  0.4834411E-002  0.4936998E+02  0.7818608E-02  0.1448770E+00
         -2   -1    0    0  501    0 -0.00000000000E+00  0.00000000000E+00  0.14765716994E+01  0.14765739013E+01  0.25500000000E-02 0.  1.
          2   -1    0    0    0  501  0.00000000000E+00 -0.00000000000E+00 -0.41267781509E+03  0.41267781510E+03  0.25500000000E-02 0.  1.
          2    1    1    2    0  502 -0.23220874498E+02 -0.75715110771E-01 -0.13534778632E+03  0.13732529997E+03  0.25500000000E-02 0.  1.
         -2    1    1    2  502    0  0.23220874498E+02  0.75715110771E-01 -0.27585345708E+03  0.27682908903E+03  0.25500000000E-02 0.  1.
<mgrwt>
<rscale>  0 0.49369984E+02</rscale>
<asrwt>0</asrwt>
<pdfrwt beam="2">  1        2 0.63488803E-01 0.49369984E+02</pdfrwt>
<pdfrwt beam="1">  1       -2 0.22716537E-03 0.49369984E+02</pdfrwt>
<totfact> 0.97414031E+05</totfact>
</mgrwt>
</event>
<event>
 4    1  0.4834411E-002  0.7706523E+02  0.7818608E-02  0.1337592E+00
         -2   -1    0    0  501    0 -0.00000000000E+00  0.00000000000E+00  0.81916392463E+00  0.81916789361E+00  0.25500000000E-02 0. -1.
          2   -1    0    0    0  501  0.00000000000E+00 -0.00000000000E+00 -0.18125293809E+04  0.18125293809E+04  0.25500000000E-02 0. -1.
          2    1    1    2    0  502  0.26404133219E+02 -0.13745985431E+02 -0.14815637671E+04  0.14818627893E+04  0.25500000000E-02 0. -1.
         -2    1    1    2  502    0 -0.26404133219E+02  0.13745985431E+02 -0.33014644991E+03  0.33148575951E+03  0.25500000000E-02 0. -1.
<mgrwt>
<rscale>  0 0.77065226E+02</rscale>
<asrwt>0</asrwt>
<pdfrwt beam="2">  1        2 0.27884746E+00 0.77065226E+02</pdfrwt>
<pdfrwt beam="1">  1       -2 0.12602698E-03 0.77065226E+02</pdfrwt>
<totfact> 0.33126649E+05</totfact>
</mgrwt>
</event>
<event>
 4    1  0.4834411E-002  0.5125194E+02  0.7818608E-02  0.1438704E+00
         -2   -1    0    0  501    0 -0.00000000000E+00  0.00000000000E+00  0.11989641196E+01  0.11989668313E+01  0.25500000000E-02 0. -1.
          2   -1    0    0    0  501  0.00000000000E+00 -0.00000000000E+00 -0.54771416955E+03  0.54771416956E+03  0.25500000000E-02 0. -1.
          2    1    1    2    0  502 -0.76279373214E+01 -0.19580634721E+02 -0.11617892619E+03  0.11806409099E+03  0.25500000000E-02 0. -1.
         -2    1    1    2  502    0  0.76279373214E+01  0.19580634721E+02 -0.43033627924E+03  0.43084904540E+03  0.25500000000E-02 0. -1.
<mgrwt>
<rscale>  0 0.51251942E+02</rscale>
<asrwt>0</asrwt>
<pdfrwt beam="2">  1        2 0.84263519E-01 0.51251942E+02</pdfrwt>
<pdfrwt beam="1">  1       -2 0.18445666E-03 0.51251942E+02</pdfrwt>
<totfact> 0.97095963E+05</totfact>
</mgrwt>
</event>
<event>
 4    1  0.4834411E-002  0.7501436E+02  0.7818608E-02  0.1343827E+00
         -2   -1    0    0  501    0 -0.00000000000E+00  0.00000000000E+00  0.50697009864E+01  0.50697016277E+01  0.25500000000E-02 0. -1.
          2   -1    0    0    0  501  0.00000000000E+00 -0.00000000000E+00 -0.27748942736E+03  0.27748942737E+03  0.25500000000E-02 0. -1.
          2    1    1    2    0  502 -0.14618210796E+02 -0.30581524866E+02 -0.75722782907E+02  0.82963013492E+02  0.25500000000E-02 0.  1.
         -2    1    1    2  502    0  0.14618210796E+02  0.30581524866E+02 -0.19669694347E+03  0.19959611551E+03  0.25500000000E-02 0.  1.
<mgrwt>
<rscale>  0 0.75014359E+02</rscale>
<asrwt>0</asrwt>
<pdfrwt beam="2">  1        2 0.42690669E-01 0.75014359E+02</pdfrwt>
<pdfrwt beam="1">  1       -2 0.77995426E-03 0.75014359E+02</pdfrwt>
<totfact> 0.29225017E+05</totfact>
</mgrwt>
</event>
<event>
 4    1  0.4834411E-002  0.8747975E+02  0.7818608E-02  0.1309072E+00
          2   -1    0    0    0  501  0.00000000000E+00  0.00000000000E+00  0.97392820170E+03  0.97392820170E+03  0.25500000000E-02 0. -1.
         -2   -1    0    0  501    0 -0.00000000000E+00 -0.00000000000E+00 -0.19643912876E+01  0.19643929427E+01  0.25500000000E-02 0. -1.
          2    1    1    2    0  502  0.14608634810E+02 -0.37206577346E+02  0.68411160843E+03  0.68527836272E+03  0.25500000000E-02 0. -1.
         -2    1    1    2  502    0 -0.14608634810E+02  0.37206577346E+02  0.28785220198E+03  0.29061423193E+03  0.25500000000E-02 0. -1.
<mgrwt>
<rscale>  0 0.87479755E+02</rscale>
<asrwt>0</asrwt>
<pdfrwt beam="1">  1        2 0.14983533E+00 0.87479755E+02</pdfrwt>
<pdfrwt beam="2">  1       -2 0.30221372E-03 0.87479755E+02</pdfrwt>
<totfact> 0.27835307E+05</totfact>
</mgrwt>
</event>
<event>
 4    1  0.4834411E-002  0.5609745E+02  0.7818608E-02  0.1414979E+00
          2   -1    0    0    0  501  0.00000000000E+00  0.00000000000E+00  0.18169987100E+01  0.18170004994E+01  0.25500000000E-02 0.  1.
         -2   -1    0    0  501    0 -0.00000000000E+00 -0.00000000000E+00 -0.43298359410E+03  0.43298359411E+03  0.25500000000E-02 0.  1.
          2    1    1    2    0  502 -0.20838179754E+02 -0.13247579442E+02 -0.11246464959E+03  0.11514349965E+03  0.25500000000E-02 0.  1.
         -2    1    1    2  502    0  0.20838179754E+02  0.13247579442E+02 -0.31870194580E+03  0.31965709496E+03  0.25500000000E-02 0.  1.
<mgrwt>
<rscale>  0 0.56097452E+02</rscale>
<asrwt>0</asrwt>
<pdfrwt beam="1">  1        2 0.27953875E-03 0.56097452E+02</pdfrwt>
<pdfrwt beam="2">  1       -2 0.66612778E-01 0.56097452E+02</pdfrwt>
<totfact> 0.13879329E+05</totfact>
</mgrwt>
</event>
<event>
 4    1  0.4834411E-002  0.4259095E+02  0.7818608E-02  0.1489967E+00
          2   -1    0    0    0  501  0.00000000000E+00  0.00000000000E+00  0.25754759817E+03  0.25754759818E+03  0.25500000000E-02 0.  1.
         -2   -1    0    0  501    0 -0.00000000000E+00 -0.00000000000E+00 -0.17608275765E+01  0.17608294229E+01  0.25500000000E-02 0.  1.
          2    1    1    2    0  502 -0.60134642393E+01  0.20396463807E+02  0.13488746094E+03  0.13655330319E+03  0.25500000000E-02 0.  1.
         -2    1    1    2  502    0  0.60134642393E+01 -0.20396463807E+02  0.12089930965E+03  0.12275512441E+03  0.25500000000E-02 0.  1.
<mgrwt>
<rscale>  0 0.42590945E+02</rscale>
<asrwt>0</asrwt>
<pdfrwt beam="1">  1        2 0.39622727E-01 0.42590945E+02</pdfrwt>
<pdfrwt beam="2">  1       -2 0.27089656E-03 0.42590945E+02</pdfrwt>
<totfact> 0.11920272E+06</totfact>
</mgrwt>
</event>
<event>
 4    1  0.4834411E-002  0.1115226E+03  0.7818608E-02  0.1257776E+00
          2   -1    0    0    0  501  0.00000000000E+00  0.00000000000E+00  0.34333999457E+04  0.34333999457E+04  0.25500000000E-02 0.  1.
         -2   -1    0    0  501    0 -0.00000000000E+00 -0.00000000000E+00 -0.90560926820E+00  0.90561285832E+00  0.25500000000E-02 0.  1.
          2    1    1    2    0  502  0.36447329920E+02  0.35245304317E+02  0.24309797454E+04  0.24315084128E+04  0.25500000000E-02 0. -1.
         -2    1    1    2  502    0 -0.36447329920E+02 -0.35245304317E+02  0.10015145910E+04  0.10027971457E+04  0.25500000000E-02 0. -1.
<mgrwt>
<rscale>  0 0.11152264E+03</rscale>
<asrwt>0</asrwt>
<pdfrwt beam="1">  1        2 0.52821418E+00 0.11152264E+03</pdfrwt>
<pdfrwt beam="2">  1       -2 0.13932510E-03 0.11152264E+03</pdfrwt>
<totfact> 0.39208927E+04</totfact>
</mgrwt>
</event>
<event>
 4    1  0.4834411E-002  0.5902194E+02  0.7818608E-02  0.1401983E+00
          2   -1    0    0    0  501  0.00000000000E+00  0.00000000000E+00  0.20090063827E+04  0.20090063827E+04  0.25500000000E-02 0.  1.
         -2   -1    0    0  501    0 -0.00000000000E+00 -0.00000000000E+00 -0.43349274838E+00  0.43350024844E+00  0.25500000000E-02 0.  1.
          2    1    1    2    0  502 -0.32171602910E+01 -0.25512429526E+02  0.51131414845E+03  0.51196034279E+03  0.25500000000E-02 0. -1.
         -2    1    1    2  502    0  0.32171602910E+01  0.25512429526E+02  0.14972587415E+04  0.14974795401E+04  0.25500000000E-02 0. -1.
<mgrwt>
<rscale>  0 0.59021936E+02</rscale>
<asrwt>0</asrwt>
<pdfrwt beam="1">  1        2 0.30907482E+00 0.59021936E+02</pdfrwt>
<pdfrwt beam="2">  1       -2 0.66692435E-04 0.59021936E+02</pdfrwt>
<totfact> 0.60419064E+05</totfact>
</mgrwt>
</event>
<event>
 4    1  0.4834411E-002  0.5626128E+02  0.7818608E-02  0.1414227E+00
         -2   -1    0    0  501    0 -0.00000000000E+00  0.00000000000E+00  0.10984729868E+03  0.10984729871E+03  0.25500000000E-02 0.  1.
          2   -1    0    0    0  501  0.00000000000E+00 -0.00000000000E+00 -0.72039366174E+01  0.72039370688E+01  0.25500000000E-02 0.  1.
          2    1    1    2    0  502 -0.25482276215E+02  0.54094881180E+01  0.29232753380E+02  0.39155623345E+02  0.25500000000E-02 0.  1.
         -2    1    1    2  502    0  0.25482276215E+02 -0.54094881180E+01  0.73410608683E+02  0.77895612434E+02  0.25500000000E-02 0.  1.
<mgrwt>
<rscale>  0 0.56261284E+02</rscale>
<asrwt>0</asrwt>
<pdfrwt beam="2">  1        2 0.11082980E-02 0.56261284E+02</pdfrwt>
<pdfrwt beam="1">  1       -2 0.16899584E-01 0.56261284E+02</pdfrwt>
<totfact> 0.25785987E+05</totfact>
</mgrwt>
</event>
<event>
 4    1  0.4834411E-002  0.4562351E+02  0.7818608E-02  0.1470486E+00
          2   -1    0    0    0  501  0.00000000000E+00  0.00000000000E+00  0.34125386279E+01  0.34125395807E+01  0.25500000000E-02 0.  1.
         -2   -1    0    0  501    0 -0.00000000000E+00 -0.00000000000E+00 -0.15248943480E+03  0.15248943483E+03  0.25500000000E-02 0.  1.
          2    1    1    2    0  502  0.86850027184E+01  0.20074419914E+02 -0.52402190371E+02  0.56783810802E+02  0.25500000000E-02 0. -1.
         -2    1    1    2  502    0 -0.86850027184E+01 -0.20074419914E+02 -0.96674705805E+02  0.99118163603E+02  0.25500000000E-02 0. -1.
<mgrwt>
<rscale>  0 0.45623510E+02</rscale>
<asrwt>0</asrwt>
<pdfrwt beam="1">  1        2 0.52500614E-03 0.45623510E+02</pdfrwt>
<pdfrwt beam="2">  1       -2 0.23459908E-01 0.45623510E+02</pdfrwt>
<totfact> 0.39021101E+05</totfact>
</mgrwt>
</event>
<event>
 4    1  0.4834411E-002  0.4381026E+02  0.7818608E-02  0.1481909E+00
         -2   -1    0    0  501    0 -0.00000000000E+00  0.00000000000E+00  0.89076145604E+01  0.89076149254E+01  0.25500000000E-02 0.  1.
          2   -1    0    0    0  501  0.00000000000E+00 -0.00000000000E+00 -0.53867929855E+02  0.53867929915E+02  0.25500000000E-02 0.  1.
          2    1    1    2    0  502 -0.11817571620E+02 -0.16193262628E+02 -0.35131744728E+02  0.40448933826E+02  0.25500000000E-02 0.  1.
         -2    1    1    2  502    0  0.11817571620E+02  0.16193262628E+02 -0.98285705667E+01  0.22326611015E+02  0.25500000000E-02 0.  1.
<mgrwt>
<rscale>  0 0.43810262E+02</rscale>
<asrwt>0</asrwt>
<pdfrwt beam="2">  1        2 0.82873737E-02 0.43810262E+02</pdfrwt>
<pdfrwt beam="1">  1       -2 0.13704023E-02 0.43810262E+02</pdfrwt>
<totfact> 0.72833656E+05</totfact>
</mgrwt>
</event>
<event>
 4    1  0.4834411E-002  0.5577339E+02  0.7818608E-02  0.1416476E+00
         -2   -1    0    0  501    0 -0.00000000000E+00  0.00000000000E+00  0.98495018554E+02  0.98495018587E+02  0.25500000000E-02 0. -1.
          2   -1    0    0    0  501  0.00000000000E+00 -0.00000000000E+00 -0.78955026660E+01  0.78955030778E+01  0.25500000000E-02 0. -1.
          2    1    1    2    0  502  0.20196851584E+01  0.25576050464E+02  0.66148345933E+02  0.70949398599E+02  0.25500000000E-02 0. -1.
         -2    1    1    2  502    0 -0.20196851584E+01 -0.25576050464E+02  0.24451169955E+02  0.35441123065E+02  0.25500000000E-02 0. -1.
<mgrwt>
<rscale>  0 0.55773388E+02</rscale>
<asrwt>0</asrwt>
<pdfrwt beam="2">  1        2 0.12146928E-02 0.55773388E+02</pdfrwt>
<pdfrwt beam="1">  1       -2 0.15153079E-01 0.55773388E+02</pdfrwt>
<totfact> 0.27114107E+05</totfact>
</mgrwt>
</event>
<event>
 4    1  0.4834411E-002  0.5087114E+02  0.7818608E-02  0.1440699E+00
         -2   -1    0    0  501    0 -0.00000000000E+00  0.00000000000E+00  0.33289923397E+01  0.33289933164E+01  0.25500000000E-02 0.  1.
          2   -1    0    0    0  501  0.00000000000E+00 -0.00000000000E+00 -0.19434352892E+03  0.19434352894E+03  0.25500000000E-02 0.  1.
          2    1    1    2    0  502 -0.18789128677E+02 -0.10162069549E+02 -0.41851662380E+02  0.46987877845E+02  0.25500000000E-02 0.  1.
         -2    1    1    2  502    0  0.18789128677E+02  0.10162069549E+02 -0.14916287420E+03  0.15068464441E+03  0.25500000000E-02 0.  1.
<mgrwt>
<rscale>  0 0.50871140E+02</rscale>
<asrwt>0</asrwt>
<pdfrwt beam="2">  1        2 0.29898996E-01 0.50871140E+02</pdfrwt>
<pdfrwt beam="1">  1       -2 0.51215290E-03 0.50871140E+02</pdfrwt>
<totfact> 0.69832764E+05</totfact>
</mgrwt>
</event>
<event>
 4    1  0.4834411E-002  0.6904280E+02  0.7818608E-02  0.1363379E+00
          2   -1    0    0    0  501  0.00000000000E+00  0.00000000000E+00  0.52357568233E+01  0.52357574442E+01  0.25500000000E-02 0.  1.
         -2   -1    0    0  501    0 -0.00000000000E+00 -0.00000000000E+00 -0.22761313463E+03  0.22761313465E+03  0.25500000000E-02 0.  1.
          2    1    1    2    0  502 -0.32590439312E+02  0.84870480579E+01 -0.13677558261E+03  0.14086066422E+03  0.25500000000E-02 0. -1.
         -2    1    1    2  502    0  0.32590439312E+02 -0.84870480579E+01 -0.85601795199E+02  0.91988227872E+02  0.25500000000E-02 0. -1.
<mgrwt>
<rscale>  0 0.69042801E+02</rscale>
<asrwt>0</asrwt>
<pdfrwt beam="1">  1        2 0.80550128E-03 0.69042801E+02</pdfrwt>
<pdfrwt beam="2">  1       -2 0.35017398E-01 0.69042801E+02</pdfrwt>
<totfact> 0.11926885E+05</totfact>
</mgrwt>
</event>
<event>
 4    1  0.4834411E-002  0.4898004E+02  0.7818608E-02  0.1450922E+00
          2   -1    0    0    0  501  0.00000000000E+00  0.00000000000E+00  0.99464996024E+03  0.99464996025E+03  0.25500000000E-02 0.  1.
         -2   -1    0    0  501    0 -0.00000000000E+00 -0.00000000000E+00 -0.60298434542E+00  0.60298973733E+00  0.25500000000E-02 0.  1.
          2    1    1    2    0  502  0.69848219757E+01  0.20836849754E+02  0.27742270109E+03  0.27829178416E+03  0.25500000000E-02 0. -1.
         -2    1    1    2  502    0 -0.69848219757E+01 -0.20836849754E+02  0.71662427481E+03  0.71696116582E+03  0.25500000000E-02 0. -1.
<mgrwt>
<rscale>  0 0.48980038E+02</rscale>
<asrwt>0</asrwt>
<pdfrwt beam="1">  1        2 0.15302231E+00 0.48980038E+02</pdfrwt>
<pdfrwt beam="2">  1       -2 0.92767696E-04 0.48980038E+02</pdfrwt>
<totfact> 0.12178379E+06</totfact>
</mgrwt>
</event>
<event>
 4    1  0.4834411E-002  0.7563229E+02  0.7818608E-02  0.1341924E+00
          2   -1    0    0    0  501  0.00000000000E+00  0.00000000000E+00  0.45386690533E+03  0.45386690534E+03  0.25500000000E-02 0. -1.
         -2   -1    0    0  501    0 -0.00000000000E+00 -0.00000000000E+00 -0.31508366191E+01  0.31508376510E+01  0.25500000000E-02 0. -1.
          2    1    1    2    0  502 -0.68009411883E+01  0.35407955659E+02  0.29427699583E+03  0.29647753103E+03  0.25500000000E-02 0. -1.
         -2    1    1    2  502    0  0.68009411883E+01 -0.35407955659E+02  0.15643907289E+03  0.16054021196E+03  0.25500000000E-02 0. -1.
<mgrwt>
<rscale>  0 0.75632287E+02</rscale>
<asrwt>0</asrwt>
<pdfrwt beam="1">  1        2 0.69825637E-01 0.75632287E+02</pdfrwt>
<pdfrwt beam="2">  1       -2 0.48474446E-03 0.75632287E+02</pdfrwt>
<totfact> 0.34072689E+05</totfact>
</mgrwt>
</event>
<event>
 4    1  0.4834411E-002  0.8137155E+02  0.7818608E-02  0.1325204E+00
         -2   -1    0    0  501    0 -0.00000000000E+00  0.00000000000E+00  0.20422928122E+02  0.20422928281E+02  0.25500000000E-02 0. -1.
          2   -1    0    0    0  501  0.00000000000E+00 -0.00000000000E+00 -0.81052644441E+02  0.81052644481E+02  0.25500000000E-02 0. -1.
          2    1    1    2    0  502  0.22412536236E+02  0.98702903977E+01  0.10202033646E+02  0.26529717489E+02  0.25500000000E-02 0. -1.
         -2    1    1    2  502    0 -0.22412536236E+02 -0.98702903977E+01 -0.70831749964E+02  0.74945855273E+02  0.25500000000E-02 0. -1.
<mgrwt>
<rscale>  0 0.81371551E+02</rscale>
<asrwt>0</asrwt>
<pdfrwt beam="2">  1        2 0.12469637E-01 0.81371551E+02</pdfrwt>
<pdfrwt beam="1">  1       -2 0.31419890E-02 0.81371551E+02</pdfrwt>
<totfact> 0.15766368E+05</totfact>
</mgrwt>
</event>
<event>
 4    1  0.4834411E-002  0.1612716E+03  0.7818608E-02  0.1187269E+00
         -2   -1    0    0  501    0 -0.00000000000E+00  0.00000000000E+00  0.19385666000E+02  0.19385666168E+02  0.25500000000E-02 0. -1.
          2   -1    0    0    0  501  0.00000000000E+00 -0.00000000000E+00 -0.33540930858E+03  0.33540930859E+03  0.25500000000E-02 0. -1.
          2    1    1    2    0  502  0.24280712339E+02 -0.76489982180E+02 -0.17531529269E+03  0.19281006774E+03  0.25500000000E-02 0.  1.
         -2    1    1    2  502    0 -0.24280712339E+02  0.76489982180E+02 -0.14070834989E+03  0.16198490702E+03  0.25500000000E-02 0.  1.
<mgrwt>
<rscale>  0 0.16127161E+03</rscale>
<asrwt>0</asrwt>
<pdfrwt beam="2">  1        2 0.51601428E-01 0.16127161E+03</pdfrwt>
<pdfrwt beam="1">  1       -2 0.29824104E-02 0.16127161E+03</pdfrwt>
<totfact> 0.38976137E+04</totfact>
</mgrwt>
</event>
<event>
 4    1  0.4834411E-002  0.4142284E+02  0.7818608E-02  0.1497994E+00
          2   -1    0    0    0  501  0.00000000000E+00  0.00000000000E+00  0.21344200200E+04  0.21344200200E+04  0.25500000000E-02 0.  1.
         -2   -1    0    0  501    0 -0.00000000000E+00 -0.00000000000E+00 -0.20096593560E+00  0.20098211306E+00  0.25500000000E-02 0.  1.
          2    1    1    2    0  502 -0.15243730433E+02 -0.13759141097E+02  0.12061297067E+04  0.12063045033E+04  0.25500000000E-02 0. -1.
         -2    1    1    2  502    0  0.15243730433E+02  0.13759141097E+02  0.92808934739E+03  0.92831649884E+03  0.25500000000E-02 0. -1.
<mgrwt>
<rscale>  0 0.41422843E+02</rscale>
<asrwt>0</asrwt>
<pdfrwt beam="1">  1        2 0.32836056E+00 0.41422843E+02</pdfrwt>
<pdfrwt beam="2">  1       -2 0.30920187E-04 0.41422843E+02</pdfrwt>
<totfact> 0.13766896E+06</totfact>
</mgrwt>
</event>
<event>
 4    1  0.4834411E-002  0.6037923E+02  0.7818608E-02  0.1396247E+00
         -2   -1    0    0  501    0 -0.00000000000E+00  0.00000000000E+00  0.14316790307E+02  0.14316790534E+02  0.25500000000E-02 0. -1.
          2   -1    0    0    0  501  0.00000000000E+00 -0.00000000000E+00 -0.63660407172E+02  0.63660407223E+02  0.25500000000E-02 0. -1.
          2    1    1    2    0  502  0.22561919497E+02 -0.19890214695E+02 -0.21316043223E+02  0.36865085883E+02  0.25500000000E-02 0. -1.
         -2    1    1    2  502    0 -0.22561919497E+02  0.19890214695E+02 -0.28027573641E+02  0.41112111874E+02  0.25500000000E-02 0. -1.
<mgrwt>
<rscale>  0 0.60379225E+02</rscale>
<asrwt>0</asrwt>
<pdfrwt beam="2">  1        2 0.97939087E-02 0.60379225E+02</pdfrwt>
<pdfrwt beam="1">  1       -2 0.22025832E-02 0.60379225E+02</pdfrwt>
<totfact> 0.33016038E+05</totfact>
</mgrwt>
</event>
<event>
 4    1  0.4834411E-002  0.1268233E+03  0.7818608E-02  0.1232247E+00
          2   -1    0    0    0  501  0.00000000000E+00  0.00000000000E+00  0.40905542265E+02  0.40905542344E+02  0.25500000000E-02 0.  1.
         -2   -1    0    0  501    0 -0.00000000000E+00 -0.00000000000E+00 -0.98300523163E+02  0.98300523196E+02  0.25500000000E-02 0.  1.
          2    1    1    2    0  502  0.32291122101E+01 -0.63329214836E+02 -0.28543865107E+02  0.69539692688E+02  0.25500000000E-02 0. -1.
         -2    1    1    2  502    0 -0.32291122101E+01  0.63329214836E+02 -0.28851115792E+02  0.69666372852E+02  0.25500000000E-02 0. -1.
<mgrwt>
<rscale>  0 0.12682328E+03</rscale>
<asrwt>0</asrwt>
<pdfrwt beam="1">  1        2 0.62931604E-02 0.12682328E+03</pdfrwt>
<pdfrwt beam="2">  1       -2 0.15123157E-01 0.12682328E+03</pdfrwt>
<totfact> 0.35521729E+04</totfact>
</mgrwt>
</event>
<event>
 4    1  0.4834411E-002  0.4220412E+02  0.7818608E-02  0.1492591E+00
          2   -1    0    0    0  501  0.00000000000E+00  0.00000000000E+00  0.73378371734E+00  0.73378814813E+00  0.25500000000E-02 0. -1.
         -2   -1    0    0  501    0 -0.00000000000E+00 -0.00000000000E+00 -0.60684844267E+03  0.60684844267E+03  0.25500000000E-02 0. -1.
          2    1    1    2    0  502 -0.17566060358E+02 -0.11087103348E+02 -0.35654974544E+03  0.35715432423E+03  0.25500000000E-02 0.  1.
         -2    1    1    2  502    0  0.17566060358E+02  0.11087103348E+02 -0.24956491351E+03  0.25042790659E+03  0.25500000000E-02 0.  1.
<mgrwt>
<rscale>  0 0.42204116E+02</rscale>
<asrwt>0</asrwt>
<pdfrwt beam="1">  1        2 0.11289063E-03 0.42204116E+02</pdfrwt>
<pdfrwt beam="2">  1       -2 0.93360898E-01 0.42204116E+02</pdfrwt>
<totfact> 0.21338826E+05</totfact>
</mgrwt>
</event>
<event>
 4    1  0.4834411E-002  0.4634864E+02  0.7818608E-02  0.1466094E+00
          2   -1    0    0    0  501  0.00000000000E+00  0.00000000000E+00  0.41991927421E+02  0.41991927498E+02  0.25500000000E-02 0. -1.
         -2   -1    0    0  501    0 -0.00000000000E+00 -0.00000000000E+00 -0.12789340772E+02  0.12789341026E+02  0.25500000000E-02 0. -1.
          2    1    1    2    0  502 -0.61798830119E+01  0.22224685989E+02  0.11979239099E+02  0.25992879741E+02  0.25500000000E-02 0. -1.
         -2    1    1    2  502    0  0.61798830119E+01 -0.22224685989E+02  0.17223347551E+02  0.28788388783E+02  0.25500000000E-02 0. -1.
<mgrwt>
<rscale>  0 0.46348639E+02</rscale>
<asrwt>0</asrwt>
<pdfrwt beam="1">  1        2 0.64602964E-02 0.46348639E+02</pdfrwt>
<pdfrwt beam="2">  1       -2 0.19675910E-02 0.46348639E+02</pdfrwt>
<totfact> 0.60374800E+05</totfact>
</mgrwt>
</event>
<event>
 4    1  0.4834411E-002  0.5293992E+02  0.7818608E-02  0.1430100E+00
          2   -1    0    0    0  501  0.00000000000E+00  0.00000000000E+00  0.19962555035E+02  0.19962555198E+02  0.25500000000E-02 0.  1.
         -2   -1    0    0  501    0 -0.00000000000E+00 -0.00000000000E+00 -0.35098647606E+02  0.35098647698E+02  0.25500000000E-02 0.  1.
          2    1    1    2    0  502 -0.19855528673E+02  0.11663998632E+02  0.60074652387E+01  0.23798750557E+02  0.25500000000E-02 0. -1.
         -2    1    1    2  502    0  0.19855528673E+02 -0.11663998632E+02 -0.21143557809E+02  0.31262452340E+02  0.25500000000E-02 0. -1.
<mgrwt>
<rscale>  0 0.52939917E+02</rscale>
<asrwt>0</asrwt>
<pdfrwt beam="1">  1        2 0.30711623E-02 0.52939917E+02</pdfrwt>
<pdfrwt beam="2">  1       -2 0.53997919E-02 0.52939917E+02</pdfrwt>
<totfact> 0.37764957E+05</totfact>
</mgrwt>
</event>
<event>
 4    1  0.4834411E-002  0.5761984E+02  0.7818608E-02  0.1408101E+00
          2   -1    0    0    0  501  0.00000000000E+00  0.00000000000E+00  0.15696867192E+04  0.15696867192E+04  0.25500000000E-02 0.  1.
         -2   -1    0    0  501    0 -0.00000000000E+00 -0.00000000000E+00 -0.52877215850E+00  0.52877830714E+00  0.25500000000E-02 0.  1.
          2    1    1    2    0  502  0.25321517682E+02  0.12761374262E+02  0.92347916137E+03  0.92391438641E+03  0.25500000000E-02 0.  1.
         -2    1    1    2  502    0 -0.25321517682E+02 -0.12761374262E+02  0.64567878565E+03  0.64630111107E+03  0.25500000000E-02 0.  1.
<mgrwt>
<rscale>  0 0.57619839E+02</rscale>
<asrwt>0</asrwt>
<pdfrwt beam="1">  1        2 0.24148985E+00 0.57619839E+02</pdfrwt>
<pdfrwt beam="2">  1       -2 0.81350176E-04 0.57619839E+02</pdfrwt>
<totfact> 0.75540142E+05</totfact>
</mgrwt>
</event>
<event>
 4    1  0.4834411E-002  0.5737345E+02  0.7818608E-02  0.1409197E+00
          2   -1    0    0    0  501  0.00000000000E+00  0.00000000000E+00  0.24578920134E+03  0.24578920136E+03  0.25500000000E-02 0. -1.
         -2   -1    0    0  501    0 -0.00000000000E+00 -0.00000000000E+00 -0.33481048091E+01  0.33481057802E+01  0.25500000000E-02 0. -1.
          2    1    1    2    0  502  0.20873974628E+02 -0.18409506344E+02  0.15139786504E+03  0.15393487676E+03  0.25500000000E-02 0. -1.
         -2    1    1    2  502    0 -0.20873974628E+02  0.18409506344E+02  0.91043231498E+02  0.95202430372E+02  0.25500000000E-02 0. -1.
<mgrwt>
<rscale>  0 0.57373448E+02</rscale>
<asrwt>0</asrwt>
<pdfrwt beam="1">  1        2 0.37813719E-01 0.57373448E+02</pdfrwt>
<pdfrwt beam="2">  1       -2 0.51509318E-03 0.57373448E+02</pdfrwt>
<totfact> 0.55829737E+05</totfact>
</mgrwt>
</event>
<event>
 4    1  0.4834411E-002  0.4322811E+02  0.7818608E-02  0.1485716E+00
         -2   -1    0    0  501    0 -0.00000000000E+00  0.00000000000E+00  0.42860823601E+01  0.42860831187E+01  0.25500000000E-02 0.  1.
          2   -1    0    0    0  501  0.00000000000E+00 -0.00000000000E+00 -0.10899634273E+03  0.10899634276E+03  0.25500000000E-02 0.  1.
          2    1    1    2    0  502  0.14233920228E+02  0.16126088598E+02 -0.57921687689E+02  0.61786544893E+02  0.25500000000E-02 0.  1.
         -2    1    1    2  502    0 -0.14233920228E+02 -0.16126088598E+02 -0.46788572684E+02  0.51495880989E+02  0.25500000000E-02 0.  1.
<mgrwt>
<rscale>  0 0.43228109E+02</rscale>
<asrwt>0</asrwt>
<pdfrwt beam="2">  1        2 0.16768666E-01 0.43228109E+02</pdfrwt>
<pdfrwt beam="1">  1       -2 0.65939743E-03 0.43228109E+02</pdfrwt>
<totfact> 0.88200573E+05</totfact>
</mgrwt>
</event>
<event>
 4    1  0.4834411E-002  0.4543740E+02  0.7818608E-02  0.1471629E+00
          2   -1    0    0    0  501  0.00000000000E+00  0.00000000000E+00  0.11579710398E+04  0.11579710398E+04  0.25500000000E-02 0.  1.
         -2   -1    0    0  501    0 -0.00000000000E+00 -0.00000000000E+00 -0.44572366926E+00  0.44573096352E+00  0.25500000000E-02 0.  1.
          2    1    1    2    0  502  0.21541699226E+02  0.52015928773E+01  0.70633329401E+03  0.70668084989E+03  0.25500000000E-02 0. -1.
         -2    1    1    2  502    0 -0.21541699226E+02 -0.52015928773E+01  0.45119202208E+03  0.45173592083E+03  0.25500000000E-02 0. -1.
<mgrwt>
<rscale>  0 0.45437400E+02</rscale>
<asrwt>0</asrwt>
<pdfrwt beam="1">  1        2 0.17814906E+00 0.45437400E+02</pdfrwt>
<pdfrwt beam="2">  1       -2 0.68573560E-04 0.45437400E+02</pdfrwt>
<totfact> 0.14620897E+06</totfact>
</mgrwt>
</event>
<event>
 4    1  0.4834411E-002  0.6696788E+02  0.7818608E-02  0.1370718E+00
         -2   -1    0    0  501    0 -0.00000000000E+00  0.00000000000E+00  0.54719810487E+01  0.54719816429E+01  0.25500000000E-02 0. -1.
          2   -1    0    0    0  501  0.00000000000E+00 -0.00000000000E+00 -0.20489362523E+03  0.20489362524E+03  0.25500000000E-02 0. -1.
          2    1    1    2    0  502  0.30994555117E+02  0.68058556827E+01 -0.66142780617E+02  0.73361090182E+02  0.25500000000E-02 0. -1.
         -2    1    1    2  502    0 -0.30994555117E+02 -0.68058556827E+01 -0.13327886356E+03  0.13700451671E+03  0.25500000000E-02 0. -1.
<mgrwt>
<rscale>  0 0.66967876E+02</rscale>
<asrwt>0</asrwt>
<pdfrwt beam="2">  1        2 0.31522090E-01 0.66967876E+02</pdfrwt>
<pdfrwt beam="1">  1       -2 0.84184344E-03 0.66967876E+02</pdfrwt>
<totfact> 0.35249827E+05</totfact>
</mgrwt>
</event>
<event>
 4    1  0.4834411E-002  0.5249201E+02  0.7818608E-02  0.1432346E+00
          2   -1    0    0    0  501  0.00000000000E+00  0.00000000000E+00  0.92448929678E+02  0.92448929713E+02  0.25500000000E-02 0.  1.
         -2   -1    0    0  501    0 -0.00000000000E+00 -0.00000000000E+00 -0.74511703789E+01  0.74511708152E+01  0.25500000000E-02 0.  1.
          2    1    1    2    0  502  0.11383982522E+02 -0.22227656831E+02  0.27132917887E+02  0.36876266430E+02  0.25500000000E-02 0.  1.
         -2    1    1    2  502    0 -0.11383982522E+02  0.22227656831E+02  0.57864841412E+02  0.63023834098E+02  0.25500000000E-02 0.  1.
<mgrwt>
<rscale>  0 0.52492009E+02</rscale>
<asrwt>0</asrwt>
<pdfrwt beam="1">  1        2 0.14222912E-01 0.52492009E+02</pdfrwt>
<pdfrwt beam="2">  1       -2 0.11463340E-02 0.52492009E+02</pdfrwt>
<totfact> 0.51853930E+05</totfact>
</mgrwt>
</event>
<event>
 4    1  0.4834411E-002  0.4484829E+02  0.7818608E-02  0.1475291E+00
          2   -1    0    0    0  501  0.00000000000E+00  0.00000000000E+00  0.31529327590E+03  0.31529327591E+03  0.25500000000E-02 0.  1.
         -2   -1    0    0  501    0 -0.00000000000E+00 -0.00000000000E+00 -0.15948385363E+01  0.15948405749E+01  0.25500000000E-02 0.  1.
          2    1    1    2    0  502  0.11510438248E+02 -0.17657493103E+02  0.21092202747E+03  0.21197259004E+03  0.25500000000E-02 0.  1.
         -2    1    1    2  502    0 -0.11510438248E+02  0.17657493103E+02  0.10277640989E+03  0.10491552644E+03  0.25500000000E-02 0.  1.
<mgrwt>
<rscale>  0 0.44848286E+02</rscale>
<asrwt>0</asrwt>
<pdfrwt beam="1">  1        2 0.48506625E-01 0.44848286E+02</pdfrwt>
<pdfrwt beam="2">  1       -2 0.24536010E-03 0.44848286E+02</pdfrwt>
<totfact> 0.11260704E+06</totfact>
</mgrwt>
</event>
<event>
 4    1  0.4834411E-002  0.5350075E+02  0.7818608E-02  0.1427325E+00
         -2   -1    0    0  501    0 -0.00000000000E+00  0.00000000000E+00  0.54739576803E+01  0.54739582742E+01  0.25500000000E-02 0.  1.
          2   -1    0    0    0  501  0.00000000000E+00 -0.00000000000E+00 -0.13072489776E+03  0.13072489778E+03  0.25500000000E-02 0.  1.
          2    1    1    2    0  502 -0.12450803867E+02  0.23070963629E+02 -0.49084944128E+02  0.55647314637E+02  0.25500000000E-02 0.  1.
         -2    1    1    2  502    0  0.12450803867E+02 -0.23070963629E+02 -0.76165995950E+02  0.80551541421E+02  0.25500000000E-02 0.  1.
<mgrwt>
<rscale>  0 0.53500751E+02</rscale>
<asrwt>0</asrwt>
<pdfrwt beam="2">  1        2 0.20111520E-01 0.53500751E+02</pdfrwt>
<pdfrwt beam="1">  1       -2 0.84214749E-03 0.53500751E+02</pdfrwt>
<totfact> 0.54310429E+05</totfact>
</mgrwt>
</event>
<event>
 4    1  0.4834411E-002  0.6571253E+02  0.7818608E-02  0.1375311E+00
         -2   -1    0    0  501    0 -0.00000000000E+00  0.00000000000E+00  0.91837336042E+01  0.91837339582E+01  0.25500000000E-02 0. -1.
          2   -1    0    0    0  501  0.00000000000E+00 -0.00000000000E+00 -0.11754851547E+03  0.11754851550E+03  0.25500000000E-02 0. -1.
          2    1    1    2    0  502  0.21246833879E+02 -0.13733934171E+02 -0.13751701982E+02  0.28795107425E+02  0.25500000000E-02 0. -1.
         -2    1    1    2  502    0 -0.21246833879E+02  0.13733934171E+02 -0.94613079886E+02  0.97937142033E+02  0.25500000000E-02 0. -1.
<mgrwt>
<rscale>  0 0.65712534E+02</rscale>
<asrwt>0</asrwt>
<pdfrwt beam="2">  1        2 0.18084386E-01 0.65712534E+02</pdfrwt>
<pdfrwt beam="1">  1       -2 0.14128822E-02 0.65712534E+02</pdfrwt>
<totfact> 0.30978807E+05</totfact>
</mgrwt>
</event>
<event>
 4    1  0.4834411E-002  0.6976802E+02  0.7818608E-02  0.1360884E+00
          2   -1    0    0    0  501  0.00000000000E+00  0.00000000000E+00  0.57605853582E+01  0.57605859226E+01  0.25500000000E-02 0.  1.
         -2   -1    0    0  501    0 -0.00000000000E+00 -0.00000000000E+00 -0.21124484845E+03  0.21124484847E+03  0.25500000000E-02 0.  1.
          2    1    1    2    0  502  0.54572811252E+01  0.29690336224E+02 -0.48368529632E+02  0.57015898200E+02  0.25500000000E-02 0. -1.
         -2    1    1    2  502    0 -0.54572811252E+01 -0.29690336224E+02 -0.15711573346E+03  0.15998953619E+03  0.25500000000E-02 0. -1.
<mgrwt>
<rscale>  0 0.69768017E+02</rscale>
<asrwt>0</asrwt>
<pdfrwt beam="1">  1        2 0.88624411E-03 0.69768017E+02</pdfrwt>
<pdfrwt beam="2">  1       -2 0.32499202E-01 0.69768017E+02</pdfrwt>
<totfact> 0.12010232E+05</totfact>
</mgrwt>
</event>
<event>
 4    1  0.4834411E-002  0.8695595E+02  0.7818608E-02  0.1310395E+00
          2   -1    0    0    0  501  0.00000000000E+00  0.00000000000E+00  0.38867888045E+03  0.38867888046E+03  0.25500000000E-02 0.  1.
         -2   -1    0    0  501    0 -0.00000000000E+00 -0.00000000000E+00 -0.48634854083E+01  0.48634860768E+01  0.25500000000E-02 0.  1.
          2    1    1    2    0  502  0.36889935826E+02 -0.11058494765E+02  0.10058398376E+03  0.10770466781E+03  0.25500000000E-02 0.  1.
         -2    1    1    2  502    0 -0.36889935826E+02  0.11058494765E+02  0.28323141128E+03  0.28583769873E+03  0.25500000000E-02 0.  1.
<mgrwt>
<rscale>  0 0.86955947E+02</rscale>
<asrwt>0</asrwt>
<pdfrwt beam="1">  1        2 0.59796746E-01 0.86955947E+02</pdfrwt>
<pdfrwt beam="2">  1       -2 0.74822864E-03 0.86955947E+02</pdfrwt>
<totfact> 0.22400218E+05</totfact>
</mgrwt>
</event>
<event>
 4    1  0.4834411E-002  0.1038096E+03  0.7818608E-02  0.1272483E+00
         -2   -1    0    0  501    0 -0.00000000000E+00  0.00000000000E+00  0.12819417733E+01  0.12819443095E+01  0.25500000000E-02 0. -1.
          2   -1    0    0    0  501  0.00000000000E+00 -0.00000000000E+00 -0.21015801312E+04  0.21015801312E+04  0.25500000000E-02 0. -1.
          2    1    1    2    0  502 -0.38881487417E+02 -0.27349415010E+02 -0.14723227151E+04  0.14730899286E+04  0.25500000000E-02 0. -1.
         -2    1    1    2  502    0  0.38881487417E+02  0.27349415010E+02 -0.62797547434E+03  0.62977214685E+03  0.25500000000E-02 0. -1.
<mgrwt>
<rscale>  0 0.10380956E+03</rscale>
<asrwt>0</asrwt>
<pdfrwt beam="2">  1        2 0.32331726E+00 0.10380956E+03</pdfrwt>
<pdfrwt beam="1">  1       -2 0.19722369E-03 0.10380956E+03</pdfrwt>
<totfact> 0.13262876E+05</totfact>
</mgrwt>
</event>
<event>
 4    1  0.4834411E-002  0.4988152E+02  0.7818608E-02  0.1445982E+00
          2   -1    0    0    0  501  0.00000000000E+00  0.00000000000E+00  0.14653119815E+04  0.14653119815E+04  0.25500000000E-02 0.  1.
         -2   -1    0    0  501    0 -0.00000000000E+00 -0.00000000000E+00 -0.42450746251E+00  0.42451512132E+00  0.25500000000E-02 0.  1.
          2    1    1    2    0  502  0.38236059919E+01  0.22121423599E+02  0.10517263174E+04  0.10519658854E+04  0.25500000000E-02 0. -1.
         -2    1    1    2  502    0 -0.38236059919E+01 -0.22121423599E+02  0.41316115664E+03  0.41377061122E+03  0.25500000000E-02 0. -1.
<mgrwt>
<rscale>  0 0.49881519E+02</rscale>
<asrwt>0</asrwt>
<pdfrwt beam="1">  1        2 0.22543130E+00 0.49881519E+02</pdfrwt>
<pdfrwt beam="2">  1       -2 0.65309811E-04 0.49881519E+02</pdfrwt>
<totfact> 0.11113861E+06</totfact>
</mgrwt>
</event>
<event>
 4    1  0.4834411E-002  0.4796500E+02  0.7818608E-02  0.1456637E+00
         -2   -1    0    0  501    0 -0.00000000000E+00  0.00000000000E+00  0.58842392592E+02  0.58842392647E+02  0.25500000000E-02 0. -1.
          2   -1    0    0    0  501  0.00000000000E+00 -0.00000000000E+00 -0.97745904117E+01  0.97745907443E+01  0.25500000000E-02 0. -1.
          2    1    1    2    0  502 -0.23051299437E+02 -0.45035036989E+01  0.17596575812E+02  0.29347630877E+02  0.25500000000E-02 0.  1.
         -2    1    1    2  502    0  0.23051299437E+02  0.45035036989E+01  0.31471226368E+02  0.39269352514E+02  0.25500000000E-02 0.  1.
<mgrwt>
<rscale>  0 0.47965000E+02</rscale>
<asrwt>0</asrwt>
<pdfrwt beam="2">  1        2 0.15037832E-02 0.47965000E+02</pdfrwt>
<pdfrwt beam="1">  1       -2 0.90526758E-02 0.47965000E+02</pdfrwt>
<totfact> 0.43754596E+05</totfact>
</mgrwt>
</event>
<event>
 4    1  0.4834411E-002  0.7387750E+02  0.7818608E-02  0.1347383E+00
         -2   -1    0    0  501    0 -0.00000000000E+00  0.00000000000E+00  0.12737430404E+01  0.12737455929E+01  0.25500000000E-02 0. -1.
          2   -1    0    0    0  501  0.00000000000E+00 -0.00000000000E+00 -0.10712285482E+04  0.10712285482E+04  0.25500000000E-02 0. -1.
          2    1    1    2    0  502 -0.13657183448E+01 -0.35466572862E+02 -0.68354293065E+03  0.68446379088E+03  0.25500000000E-02 0.  1.
         -2    1    1    2  502    0  0.13657183448E+01  0.35466572862E+02 -0.38641187452E+03  0.38803850293E+03  0.25500000000E-02 0.  1.
<mgrwt>
<rscale>  0 0.73877501E+02</rscale>
<asrwt>0</asrwt>
<pdfrwt beam="2">  1        2 0.16480367E+00 0.73877501E+02</pdfrwt>
<pdfrwt beam="1">  1       -2 0.19596152E-03 0.73877501E+02</pdfrwt>
<totfact> 0.43301902E+05</totfact>
</mgrwt>
</event>
<event>
 4    1  0.4834411E-002  0.8301484E+02  0.7818608E-02  0.1320707E+00
         -2   -1    0    0  501    0 -0.00000000000E+00  0.00000000000E+00  0.33935134486E+01  0.33935144067E+01  0.25500000000E-02 0. -1.
          2   -1    0    0    0  501  0.00000000000E+00 -0.00000000000E+00 -0.50769382949E+03  0.50769382949E+03  0.25500000000E-02 0. -1.
          2    1    1    2    0  502  0.37948024033E+02 -0.30856971864E+01 -0.15037240754E+03  0.15511748777E+03  0.25500000000E-02 0. -1.
         -2    1    1    2  502    0 -0.37948024033E+02  0.30856971864E+01 -0.35392790850E+03  0.35596985613E+03  0.25500000000E-02 0. -1.
<mgrwt>
<rscale>  0 0.83014844E+02</rscale>
<asrwt>0</asrwt>
<pdfrwt beam="2">  1        2 0.78106683E-01 0.83014844E+02</pdfrwt>
<pdfrwt beam="1">  1       -2 0.52207947E-03 0.83014844E+02</pdfrwt>
<totfact> 0.27720915E+05</totfact>
</mgrwt>
</event>
<event>
 4    1  0.4834411E-002  0.6021306E+02  0.7818608E-02  0.1396940E+00
          2   -1    0    0    0  501  0.00000000000E+00  0.00000000000E+00  0.55314169259E+03  0.55314169260E+03  0.25500000000E-02 0.  1.
         -2   -1    0    0  501    0 -0.00000000000E+00 -0.00000000000E+00 -0.16386447788E+01  0.16386467629E+01  0.25500000000E-02 0.  1.
          2    1    1    2    0  502 -0.25226529985E+02 -0.12921396415E+02  0.18221489799E+03  0.18440609902E+03  0.25500000000E-02 0. -1.
         -2    1    1    2  502    0  0.25226529985E+02  0.12921396415E+02  0.36928814982E+03  0.37037424034E+03  0.25500000000E-02 0. -1.
<mgrwt>
<rscale>  0 0.60213065E+02</rscale>
<asrwt>0</asrwt>
<pdfrwt beam="1">  1        2 0.85098778E-01 0.60213065E+02</pdfrwt>
<pdfrwt beam="2">  1       -2 0.25209918E-03 0.60213065E+02</pdfrwt>
<totfact> 0.65048276E+05</totfact>
</mgrwt>
</event>
<event>
 4    1  0.4834411E-002  0.5775883E+02  0.7818608E-02  0.1407485E+00
          2   -1    0    0    0  501  0.00000000000E+00  0.00000000000E+00  0.21923774687E+03  0.21923774688E+03  0.25500000000E-02 0.  1.
         -2   -1    0    0  501    0 -0.00000000000E+00 -0.00000000000E+00 -0.38041826638E+01  0.38041835185E+01  0.25500000000E-02 0.  1.
          2    1    1    2    0  502 -0.97107020684E+01  0.21463806835E+02  0.17222155880E+03  0.17382536657E+03  0.25500000000E-02 0.  1.
         -2    1    1    2  502    0  0.97107020684E+01 -0.21463806835E+02  0.43212005401E+02  0.49216563835E+02  0.25500000000E-02 0.  1.
<mgrwt>
<rscale>  0 0.57758827E+02</rscale>
<asrwt>0</asrwt>
<pdfrwt beam="1">  1        2 0.33728880E-01 0.57758827E+02</pdfrwt>
<pdfrwt beam="2">  1       -2 0.58525901E-03 0.57758827E+02</pdfrwt>
<totfact> 0.52759660E+05</totfact>
</mgrwt>
</event>
<event>
 4    1  0.4834411E-002  0.4991321E+02  0.7818608E-02  0.1445810E+00
          2   -1    0    0    0  501  0.00000000000E+00  0.00000000000E+00  0.20571125485E+04  0.20571125485E+04  0.25500000000E-02 0. -1.
         -2   -1    0    0  501    0 -0.00000000000E+00 -0.00000000000E+00 -0.30276475030E+00  0.30277548865E+00  0.25500000000E-02 0. -1.
          2    1    1    2    0  502  0.35007917554E+01  0.24605785456E+02  0.11217839000E+04  0.11220591867E+04  0.25500000000E-02 0. -1.
         -2    1    1    2  502    0 -0.35007917554E+01 -0.24605785456E+02  0.93502588377E+03  0.93535613727E+03  0.25500000000E-02 0. -1.
<mgrwt>
<rscale>  0 0.49913213E+02</rscale>
<asrwt>0</asrwt>
<pdfrwt beam="1">  1        2 0.31646037E+00 0.49913213E+02</pdfrwt>
<pdfrwt beam="2">  1       -2 0.46582740E-04 0.49913213E+02</pdfrwt>
<totfact> 0.90059689E+05</totfact>
</mgrwt>
</event>
<event>
 4    1  0.4834411E-002  0.5605758E+02  0.7818608E-02  0.1415163E+00
          2   -1    0    0    0  501  0.00000000000E+00  0.00000000000E+00  0.15732325072E+03  0.15732325074E+03  0.25500000000E-02 0. -1.
         -2   -1    0    0  501    0 -0.00000000000E+00 -0.00000000000E+00 -0.49936225723E+01  0.49936232233E+01  0.25500000000E-02 0. -1.
          2    1    1    2    0  502 -0.20490237287E+02 -0.19034790883E+02  0.81535156733E+02  0.86198346144E+02  0.25500000000E-02 0.  1.
         -2    1    1    2  502    0  0.20490237287E+02  0.19034790883E+02  0.70794471414E+02  0.76118527819E+02  0.25500000000E-02 0.  1.
<mgrwt>
<rscale>  0 0.56057577E+02</rscale>
<asrwt>0</asrwt>
<pdfrwt beam="1">  1        2 0.24203578E-01 0.56057577E+02</pdfrwt>
<pdfrwt beam="2">  1       -2 0.76824965E-03 0.56057577E+02</pdfrwt>
<totfact> 0.51020736E+05</totfact>
</mgrwt>
</event>
<event>
 4    1  0.4834411E-002  0.4743558E+02  0.7818608E-02  0.1459685E+00
         -2   -1    0    0  501    0 -0.00000000000E+00  0.00000000000E+00  0.25926022806E+02  0.25926022932E+02  0.25500000000E-02 0. -1.
          2   -1    0    0    0  501  0.00000000000E+00 -0.00000000000E+00 -0.21697640187E+02  0.21697640337E+02  0.25500000000E-02 0. -1.
          2    1    1    2    0  502 -0.22865257027E+02  0.36669074605E+01  0.72596787769E+01  0.24268686237E+02  0.25500000000E-02 0.  1.
         -2    1    1    2  502    0  0.22865257027E+02 -0.36669074605E+01 -0.30312961577E+01  0.23354977031E+02  0.25500000000E-02 0.  1.
<mgrwt>
<rscale>  0 0.47435578E+02</rscale>
<asrwt>0</asrwt>
<pdfrwt beam="2">  1        2 0.33380985E-02 0.47435578E+02</pdfrwt>
<pdfrwt beam="1">  1       -2 0.39886189E-02 0.47435578E+02</pdfrwt>
<totfact> 0.51254844E+05</totfact>
</mgrwt>
</event>
<event>
 4    1  0.4834411E-002  0.6411844E+02  0.7818608E-02  0.1381319E+00
          2   -1    0    0    0  501  0.00000000000E+00  0.00000000000E+00  0.41250204051E+02  0.41250204130E+02  0.25500000000E-02 0. -1.
         -2   -1    0    0  501    0 -0.00000000000E+00 -0.00000000000E+00 -0.24916087289E+02  0.24916087419E+02  0.25500000000E-02 0. -1.
          2    1    1    2    0  502  0.25399908858E+02 -0.19282799232E+02  0.47738836724E+01  0.32245490972E+02  0.25500000000E-02 0.  1.
         -2    1    1    2  502    0 -0.25399908858E+02  0.19282799232E+02  0.11560233090E+02  0.33920800577E+02  0.25500000000E-02 0.  1.
<mgrwt>
<rscale>  0 0.64118443E+02</rscale>
<asrwt>0</asrwt>
<pdfrwt beam="1">  1        2 0.63461852E-02 0.64118443E+02</pdfrwt>
<pdfrwt beam="2">  1       -2 0.38332442E-02 0.64118443E+02</pdfrwt>
<totfact> 0.25671622E+05</totfact>
</mgrwt>
</event>
<event>
 4    1  0.4834411E-002  0.8388750E+02  0.7818608E-02  0.1318368E+00
         -2   -1    0    0  501    0 -0.00000000000E+00  0.00000000000E+00  0.58335474469E+00  0.58336031803E+00  0.25500000000E-02 0. -1.
          2   -1    0    0    0  501  0.00000000000E+00 -0.00000000000E+00 -0.30157806757E+04  0.30157806757E+04  0.25500000000E-02 0. -1.
          2    1    1    2    0  502  0.20579172651E+02  0.36142558742E+02 -0.13123290465E+04  0.13129879334E+04  0.25500000000E-02 0.  1.
         -2    1    1    2  502    0 -0.20579172651E+02 -0.36142558742E+02 -0.17028682745E+04  0.17033761027E+04  0.25500000000E-02 0.  1.
<mgrwt>
<rscale>  0 0.83887505E+02</rscale>
<asrwt>0</asrwt>
<pdfrwt beam="2">  1        2 0.46395378E+00 0.83887505E+02</pdfrwt>
<pdfrwt beam="1">  1       -2 0.89749727E-04 0.83887505E+02</pdfrwt>
<totfact> 0.12553675E+05</totfact>
</mgrwt>
</event>
<event>
 4    1  0.4834411E-002  0.2230527E+03  0.7818608E-02  0.1131627E+00
         -2   -1    0    0  501    0 -0.00000000000E+00  0.00000000000E+00  0.38445305850E+02  0.38445305935E+02  0.25500000000E-02 0. -1.
          2   -1    0    0    0  501  0.00000000000E+00 -0.00000000000E+00 -0.32352795667E+03  0.32352795668E+03  0.25500000000E-02 0. -1.
          2    1    1    2    0  502 -0.95298895086E+02 -0.28804696916E+02 -0.22411163836E+03  0.24522972174E+03  0.25500000000E-02 0.  1.
         -2    1    1    2  502    0  0.95298895086E+02  0.28804696916E+02 -0.60971012455E+02  0.11674354087E+03  0.25500000000E-02 0.  1.
<mgrwt>
<rscale>  0 0.22305274E+03</rscale>
<asrwt>0</asrwt>
<pdfrwt beam="2">  1        2 0.49773530E-01 0.22305274E+03</pdfrwt>
<pdfrwt beam="1">  1       -2 0.59146627E-02 0.22305274E+03</pdfrwt>
<totfact> 0.14892707E+04</totfact>
</mgrwt>
</event>
<event>
 4    1  0.4834411E-002  0.4269204E+02  0.7818608E-02  0.1489286E+00
          2   -1    0    0    0  501  0.00000000000E+00  0.00000000000E+00  0.44152515820E+03  0.44152515821E+03  0.25500000000E-02 0.  1.
         -2   -1    0    0  501    0 -0.00000000000E+00 -0.00000000000E+00 -0.10319950817E+01  0.10319982322E+01  0.25500000000E-02 0.  1.
          2    1    1    2    0  502  0.17260878067E+01 -0.20197286564E+02  0.28958655816E+03  0.29029516778E+03  0.25500000000E-02 0. -1.
         -2    1    1    2  502    0 -0.17260878067E+01  0.20197286564E+02  0.15090660496E+03  0.15226198866E+03  0.25500000000E-02 0. -1.
<mgrwt>
<rscale>  0 0.42692036E+02</rscale>
<asrwt>0</asrwt>
<pdfrwt beam="1">  1        2 0.67926868E-01 0.42692036E+02</pdfrwt>
<pdfrwt beam="2">  1       -2 0.15876890E-03 0.42692036E+02</pdfrwt>
<totfact> 0.14225507E+06</totfact>
</mgrwt>
</event>
<event>
 4    1  0.4834411E-002  0.5155633E+02  0.7818608E-02  0.1437123E+00
         -2   -1    0    0  501    0 -0.00000000000E+00  0.00000000000E+00  0.25633391587E+01  0.25633404271E+01  0.25500000000E-02 0. -1.
          2   -1    0    0    0  501  0.00000000000E+00 -0.00000000000E+00 -0.25923752101E+03  0.25923752103E+03  0.25500000000E-02 0. -1.
          2    1    1    2    0  502 -0.10975794604E+02  0.22258776190E+02 -0.16373473974E+03  0.16560490992E+03  0.25500000000E-02 0. -1.
         -2    1    1    2  502    0  0.10975794604E+02 -0.22258776190E+02 -0.92939442116E+02  0.96195951537E+02  0.25500000000E-02 0. -1.
<mgrwt>
<rscale>  0 0.51556333E+02</rscale>
<asrwt>0</asrwt>
<pdfrwt beam="2">  1        2 0.39882675E-01 0.51556333E+02</pdfrwt>
<pdfrwt beam="1">  1       -2 0.39436017E-03 0.51556333E+02</pdfrwt>
<totfact> 0.74470677E+05</totfact>
</mgrwt>
</event>
<event>
 4    1  0.4834411E-002  0.8270432E+02  0.7818608E-02  0.1321548E+00
         -2   -1    0    0  501    0 -0.00000000000E+00  0.00000000000E+00  0.11161460107E+03  0.11161460110E+03  0.25500000000E-02 0.  1.
          2   -1    0    0    0  501  0.00000000000E+00 -0.00000000000E+00 -0.15320587427E+02  0.15320587639E+02  0.25500000000E-02 0.  1.
          2    1    1    2    0  502  0.34837925173E+02 -0.20769130182E+02  0.35776473962E+02  0.54083212687E+02  0.25500000000E-02 0.  1.
         -2    1    1    2  502    0 -0.34837925173E+02  0.20769130182E+02  0.60517539680E+02  0.72851976049E+02  0.25500000000E-02 0.  1.
<mgrwt>
<rscale>  0 0.82704323E+02</rscale>
<asrwt>0</asrwt>
<pdfrwt beam="2">  1        2 0.23570136E-02 0.82704323E+02</pdfrwt>
<pdfrwt beam="1">  1       -2 0.17171476E-01 0.82704323E+02</pdfrwt>
<totfact> 0.98486279E+04</totfact>
</mgrwt>
</event>
<event>
 4    1  0.4834411E-002  0.4503145E+02  0.7818608E-02  0.1474145E+00
         -2   -1    0    0  501    0 -0.00000000000E+00  0.00000000000E+00  0.11125611591E+01  0.11125640814E+01  0.25500000000E-02 0. -1.
          2   -1    0    0    0  501  0.00000000000E+00 -0.00000000000E+00 -0.45566685728E+03  0.45566685728E+03  0.25500000000E-02 0. -1.
          2    1    1    2    0  502 -0.20974128267E+02  0.77973172695E+01 -0.20192697024E+03  0.20316302206E+03  0.25500000000E-02 0. -1.
         -2    1    1    2  502    0  0.20974128267E+02 -0.77973172695E+01 -0.25262732587E+03  0.25361639931E+03  0.25500000000E-02 0. -1.
<mgrwt>
<rscale>  0 0.45031452E+02</rscale>
<asrwt>0</asrwt>
<pdfrwt beam="2">  1        2 0.70102445E-01 0.45031452E+02</pdfrwt>
<pdfrwt beam="1">  1       -2 0.17116384E-03 0.45031452E+02</pdfrwt>
<totfact> 0.12618650E+06</totfact>
</mgrwt>
</event>
<event>
 4    1  0.4834411E-002  0.5658841E+02  0.7818608E-02  0.1412733E+00
          2   -1    0    0    0  501  0.00000000000E+00  0.00000000000E+00  0.15574053270E+04  0.15574053270E+04  0.25500000000E-02 0.  1.
         -2   -1    0    0  501    0 -0.00000000000E+00 -0.00000000000E+00 -0.51403258270E+00  0.51403890765E+00  0.25500000000E-02 0.  1.
          2    1    1    2    0  502 -0.13815551502E+02  0.24675110628E+02  0.80354932271E+03  0.80404679253E+03  0.25500000000E-02 0. -1.
         -2    1    1    2  502    0  0.13815551502E+02 -0.24675110628E+02  0.75334197167E+03  0.75387257334E+03  0.25500000000E-02 0. -1.
<mgrwt>
<rscale>  0 0.56588409E+02</rscale>
<asrwt>0</asrwt>
<pdfrwt beam="1">  1        2 0.23959999E+00 0.56588409E+02</pdfrwt>
<pdfrwt beam="2">  1       -2 0.79082696E-04 0.56588409E+02</pdfrwt>
<totfact> 0.79315275E+05</totfact>
</mgrwt>
</event>
<event>
 4    1  0.4834411E-002  0.5063014E+02  0.7818608E-02  0.1441972E+00
          2   -1    0    0    0  501  0.00000000000E+00  0.00000000000E+00  0.18759686516E+02  0.18759686689E+02  0.25500000000E-02 0.  1.
         -2   -1    0    0  501    0 -0.00000000000E+00 -0.00000000000E+00 -0.34161171080E+02  0.34161171175E+02  0.25500000000E-02 0.  1.
          2    1    1    2    0  502  0.15842234007E+02  0.12361894465E+02 -0.23794108642E+02  0.31144059235E+02  0.25500000000E-02 0.  1.
         -2    1    1    2  502    0 -0.15842234007E+02 -0.12361894465E+02  0.83926240781E+01  0.21776798629E+02  0.25500000000E-02 0.  1.
<mgrwt>
<rscale>  0 0.50630144E+02</rscale>
<asrwt>0</asrwt>
<pdfrwt beam="1">  1        2 0.28861056E-02 0.50630144E+02</pdfrwt>
<pdfrwt beam="2">  1       -2 0.52555648E-02 0.50630144E+02</pdfrwt>
<totfact> 0.42154235E+05</totfact>
</mgrwt>
</event>
<event>
 4    1  0.4834411E-002  0.4272852E+02  0.7818608E-02  0.1489042E+00
         -2   -1    0    0  501    0 -0.00000000000E+00  0.00000000000E+00  0.61665626499E+00  0.61666153735E+00  0.25500000000E-02 0. -1.
          2   -1    0    0    0  501  0.00000000000E+00 -0.00000000000E+00 -0.74016873928E+03  0.74016873928E+03  0.25500000000E-02 0. -1.
          2    1    1    2    0  502  0.57364985983E+01  0.19641565029E+02 -0.47627271670E+03  0.47671207156E+03  0.25500000000E-02 0. -1.
         -2    1    1    2  502    0 -0.57364985983E+01 -0.19641565029E+02 -0.26327936631E+03  0.26407332926E+03  0.25500000000E-02 0. -1.
<mgrwt>
<rscale>  0 0.42728522E+02</rscale>
<asrwt>0</asrwt>
<pdfrwt beam="2">  1        2 0.11387140E+00 0.42728522E+02</pdfrwt>
<pdfrwt beam="1">  1       -2 0.94871193E-04 0.42728522E+02</pdfrwt>
<totfact> 0.16349945E+06</totfact>
</mgrwt>
</event>
<event>
 4    1  0.4834411E-002  0.6259677E+02  0.7818608E-02  0.1387246E+00
         -2   -1    0    0  501    0 -0.00000000000E+00  0.00000000000E+00  0.78702284359E+00  0.78702697465E+00  0.25500000000E-02 0.  1.
          2   -1    0    0    0  501  0.00000000000E+00 -0.00000000000E+00 -0.12446732256E+04  0.12446732256E+04  0.25500000000E-02 0.  1.
          2    1    1    2    0  502  0.21537959525E+02  0.15481082371E+02 -0.29137196567E+03  0.29257677624E+03  0.25500000000E-02 0.  1.
         -2    1    1    2  502    0 -0.21537959525E+02 -0.15481082371E+02 -0.95251423709E+03  0.95288347634E+03  0.25500000000E-02 0.  1.
<mgrwt>
<rscale>  0 0.62596768E+02</rscale>
<asrwt>0</asrwt>
<pdfrwt beam="2">  1        2 0.19148661E+00 0.62596768E+02</pdfrwt>
<pdfrwt beam="1">  1       -2 0.12108175E-03 0.62596768E+02</pdfrwt>
<totfact> 0.65385890E+05</totfact>
</mgrwt>
</event>
<event>
 4    1  0.4834411E-002  0.6420765E+02  0.7818608E-02  0.1380977E+00
         -2   -1    0    0  501    0 -0.00000000000E+00  0.00000000000E+00  0.25841349274E+01  0.25841361856E+01  0.25500000000E-02 0.  1.
          2   -1    0    0    0  501  0.00000000000E+00 -0.00000000000E+00 -0.39883961398E+03  0.39883961399E+03  0.25500000000E-02 0.  1.
          2    1    1    2    0  502  0.72577762192E+01  0.31270438677E+02 -0.20046679125E+03  0.20302081187E+03  0.25500000000E-02 0. -1.
         -2    1    1    2  502    0 -0.72577762192E+01 -0.31270438677E+02 -0.19578868780E+03  0.19840293830E+03  0.25500000000E-02 0. -1.
<mgrwt>
<rscale>  0 0.64207652E+02</rscale>
<asrwt>0</asrwt>
<pdfrwt beam="2">  1        2 0.61359892E-01 0.64207652E+02</pdfrwt>
<pdfrwt beam="1">  1       -2 0.39755963E-03 0.64207652E+02</pdfrwt>
<totfact> 0.49714160E+05</totfact>
</mgrwt>
</event>
<event>
 4    1  0.4834411E-002  0.6023805E+02  0.7818608E-02  0.1396835E+00
         -2   -1    0    0  501    0 -0.00000000000E+00  0.00000000000E+00  0.25396524712E+01  0.25396537514E+01  0.25500000000E-02 0. -1.
          2   -1    0    0    0  501  0.00000000000E+00 -0.00000000000E+00 -0.35719672557E+03  0.35719672558E+03  0.25500000000E-02 0. -1.
          2    1    1    2    0  502 -0.45505684664E+01  0.29356496164E+02 -0.20697487554E+03  0.20909593648E+03  0.25500000000E-02 0. -1.
         -2    1    1    2  502    0  0.45505684664E+01 -0.29356496164E+02 -0.14768219756E+03  0.15064044285E+03  0.25500000000E-02 0. -1.
<mgrwt>
<rscale>  0 0.60238054E+02</rscale>
<asrwt>0</asrwt>
<pdfrwt beam="2">  1        2 0.54953303E-01 0.60238054E+02</pdfrwt>
<pdfrwt beam="1">  1       -2 0.39071615E-03 0.60238054E+02</pdfrwt>
<totfact> 0.56286181E+05</totfact>
</mgrwt>
</event>
<event>
 4    1  0.4834411E-002  0.4912523E+02  0.7818608E-02  0.1450118E+00
         -2   -1    0    0  501    0 -0.00000000000E+00  0.00000000000E+00  0.44529275838E+00  0.44530005970E+00  0.25500000000E-02 0.  1.
          2   -1    0    0    0  501  0.00000000000E+00 -0.00000000000E+00 -0.13548775437E+04  0.13548775437E+04  0.25500000000E-02 0.  1.
          2    1    1    2    0  502 -0.22693119378E+02  0.60300717476E+00 -0.41843527384E+03  0.41905061709E+03  0.25500000000E-02 0.  1.
         -2    1    1    2  502    0  0.22693119378E+02 -0.60300717476E+00 -0.93599697711E+03  0.93627222668E+03  0.25500000000E-02 0.  1.
<mgrwt>
<rscale>  0 0.49125232E+02</rscale>
<asrwt>0</asrwt>
<pdfrwt beam="2">  1        2 0.20843940E+00 0.49125232E+02</pdfrwt>
<pdfrwt beam="1">  1       -2 0.68508225E-04 0.49125232E+02</pdfrwt>
<totfact> 0.11797097E+06</totfact>
</mgrwt>
</event>
<event>
 4    1  0.4834411E-002  0.6087764E+02  0.7818608E-02  0.1394185E+00
          2   -1    0    0    0  501  0.00000000000E+00  0.00000000000E+00  0.13289024734E+04  0.13289024734E+04  0.25500000000E-02 0.  1.
         -2   -1    0    0  501    0 -0.00000000000E+00 -0.00000000000E+00 -0.69720594875E+00  0.69721061199E+00  0.25500000000E-02 0.  1.
          2    1    1    2    0  502 -0.19166391520E+02  0.20120317655E+02  0.93543902323E+03  0.93585166770E+03  0.25500000000E-02 0.  1.
         -2    1    1    2  502    0  0.19166391520E+02 -0.20120317655E+02  0.39276624423E+03  0.39374801633E+03  0.25500000000E-02 0.  1.
<mgrwt>
<rscale>  0 0.60877642E+02</rscale>
<asrwt>0</asrwt>
<pdfrwt beam="1">  1        2 0.20444667E+00 0.60877642E+02</pdfrwt>
<pdfrwt beam="2">  1       -2 0.10726274E-03 0.60877642E+02</pdfrwt>
<totfact> 0.69345148E+05</totfact>
</mgrwt>
</event>
<event>
 4    1  0.4834411E-002  0.4965776E+02  0.7818608E-02  0.1447196E+00
          2   -1    0    0    0  501  0.00000000000E+00  0.00000000000E+00  0.16606760752E+04  0.16606760752E+04  0.25500000000E-02 0. -1.
         -2   -1    0    0  501    0 -0.00000000000E+00 -0.00000000000E+00 -0.37121390885E+00  0.37122266717E+00  0.25500000000E-02 0. -1.
          2    1    1    2    0  502 -0.21236879478E+02  0.96070408395E+01  0.11162870546E+04  0.11165303796E+04  0.25500000000E-02 0.  1.
         -2    1    1    2  502    0  0.21236879478E+02 -0.96070408395E+01  0.54401780670E+03  0.54451691829E+03  0.25500000000E-02 0.  1.
<mgrwt>
<rscale>  0 0.49657762E+02</rscale>
<asrwt>0</asrwt>
<pdfrwt beam="1">  1        2 0.25548667E+00 0.49657762E+02</pdfrwt>
<pdfrwt beam="2">  1       -2 0.57110944E-04 0.49657762E+02</pdfrwt>
<totfact> 0.10661863E+06</totfact>
</mgrwt>
</event>
<event>
 4    1  0.4834411E-002  0.4107468E+02  0.7818608E-02  0.1500449E+00
          2   -1    0    0    0  501  0.00000000000E+00  0.00000000000E+00  0.12619742677E+03  0.12619742679E+03  0.25500000000E-02 0. -1.
         -2   -1    0    0  501    0 -0.00000000000E+00 -0.00000000000E+00 -0.33422415926E+01  0.33422425654E+01  0.25500000000E-02 0. -1.
          2    1    1    2    0  502  0.80096708783E+01 -0.18833134109E+02  0.56019489006E+02  0.59640799148E+02  0.25500000000E-02 0. -1.
         -2    1    1    2  502    0 -0.80096708783E+01  0.18833134109E+02  0.66835696167E+02  0.69898870210E+02  0.25500000000E-02 0. -1.
<mgrwt>
<rscale>  0 0.41074681E+02</rscale>
<asrwt>0</asrwt>
<pdfrwt beam="1">  1        2 0.19414989E-01 0.41074681E+02</pdfrwt>
<pdfrwt beam="2">  1       -2 0.51419108E-03 0.41074681E+02</pdfrwt>
<totfact> 0.10411094E+06</totfact>
</mgrwt>
</event>
<event>
 4    1  0.4834411E-002  0.7055402E+02  0.7818608E-02  0.1358219E+00
          2   -1    0    0    0  501  0.00000000000E+00  0.00000000000E+00  0.20438659452E+01  0.20438675359E+01  0.25500000000E-02 0. -1.
         -2   -1    0    0  501    0 -0.00000000000E+00 -0.00000000000E+00 -0.60887887886E+03  0.60887887887E+03  0.25500000000E-02 0. -1.
          2    1    1    2    0  502 -0.14880073758E+02  0.27717363508E+02 -0.44163497939E+03  0.44275402185E+03  0.25500000000E-02 0. -1.
         -2    1    1    2  502    0  0.14880073758E+02 -0.27717363508E+02 -0.16520003352E+03  0.16816872455E+03  0.25500000000E-02 0. -1.
<mgrwt>
<rscale>  0 0.70554016E+02</rscale>
<asrwt>0</asrwt>
<pdfrwt beam="1">  1        2 0.31444152E-03 0.70554016E+02</pdfrwt>
<pdfrwt beam="2">  1       -2 0.93673529E-01 0.70554016E+02</pdfrwt>
<totfact> 0.59629165E+04</totfact>
</mgrwt>
</event>
<event>
 4    1  0.4834411E-002  0.5304166E+02  0.7818608E-02  0.1429594E+00
         -2   -1    0    0  501    0 -0.00000000000E+00  0.00000000000E+00  0.31707083439E+02  0.31707083541E+02  0.25500000000E-02 0.  1.
          2   -1    0    0    0  501  0.00000000000E+00 -0.00000000000E+00 -0.22182876694E+02  0.22182876841E+02  0.25500000000E-02 0.  1.
          2    1    1    2    0  502  0.18026981306E+02  0.16620172809E+02 -0.55065734362E+01  0.25130152342E+02  0.25500000000E-02 0. -1.
         -2    1    1    2  502    0 -0.18026981306E+02 -0.16620172809E+02  0.15030780180E+02  0.28759808041E+02  0.25500000000E-02 0. -1.
<mgrwt>
<rscale>  0 0.53041656E+02</rscale>
<asrwt>0</asrwt>
<pdfrwt beam="2">  1        2 0.34127503E-02 0.53041656E+02</pdfrwt>
<pdfrwt beam="1">  1       -2 0.48780128E-02 0.53041656E+02</pdfrwt>
<totfact> 0.38229977E+05</totfact>
</mgrwt>
</event>
<event>
 4    1  0.4834411E-002  0.4567629E+02  0.7818608E-02  0.1470163E+00
          2   -1    0    0    0  501  0.00000000000E+00  0.00000000000E+00  0.88319633785E+00  0.88320001907E+00  0.25500000000E-02 0.  1.
         -2   -1    0    0  501    0 -0.00000000000E+00 -0.00000000000E+00 -0.59055917167E+03  0.59055917168E+03  0.25500000000E-02 0.  1.
          2    1    1    2    0  502  0.19756198091E+02  0.45045561890E+01 -0.15842720948E+03  0.15971781084E+03  0.25500000000E-02 0. -1.
         -2    1    1    2  502    0 -0.19756198091E+02 -0.45045561890E+01 -0.43124876585E+03  0.43172456085E+03  0.25500000000E-02 0. -1.
<mgrwt>
<rscale>  0 0.45676287E+02</rscale>
<asrwt>0</asrwt>
<pdfrwt beam="1">  1        2 0.13587712E-03 0.45676287E+02</pdfrwt>
<pdfrwt beam="2">  1       -2 0.90854942E-01 0.45676287E+02</pdfrwt>
<totfact> 0.18047900E+05</totfact>
</mgrwt>
</event>
<event>
 4    1  0.4834411E-002  0.4435053E+02  0.7818608E-02  0.1478437E+00
          2   -1    0    0    0  501  0.00000000000E+00  0.00000000000E+00  0.43989962753E+01  0.43989970144E+01  0.25500000000E-02 0.  1.
         -2   -1    0    0  501    0 -0.00000000000E+00 -0.00000000000E+00 -0.11178512468E+03  0.11178512471E+03  0.25500000000E-02 0.  1.
          2    1    1    2    0  502 -0.14996994717E+02  0.16088071028E+02 -0.61105645283E+02  0.64943327385E+02  0.25500000000E-02 0.  1.
         -2    1    1    2  502    0  0.14996994717E+02 -0.16088071028E+02 -0.46280483126E+02  0.51240794342E+02  0.25500000000E-02 0.  1.
<mgrwt>
<rscale>  0 0.44350531E+02</rscale>
<asrwt>0</asrwt>
<pdfrwt beam="1">  1        2 0.67676880E-03 0.44350531E+02</pdfrwt>
<pdfrwt beam="2">  1       -2 0.17197709E-01 0.44350531E+02</pdfrwt>
<totfact> 0.45889138E+05</totfact>
</mgrwt>
</event>
<event>
 4    1  0.4834411E-002  0.4819784E+02  0.7818608E-02  0.1455312E+00
          2   -1    0    0    0  501  0.00000000000E+00  0.00000000000E+00  0.53010902269E+02  0.53010902330E+02  0.25500000000E-02 0. -1.
         -2   -1    0    0  501    0 -0.00000000000E+00 -0.00000000000E+00 -0.10955442808E+02  0.10955443104E+02  0.25500000000E-02 0. -1.
          2    1    1    2    0  502  0.14909208831E+02 -0.14464749048E+02  0.48143687046E+01  0.21323499373E+02  0.25500000000E-02 0. -1.
         -2    1    1    2  502    0 -0.14909208831E+02  0.14464749048E+02  0.37241090757E+02  0.42642846062E+02  0.25500000000E-02 0. -1.
<mgrwt>
<rscale>  0 0.48197839E+02</rscale>
<asrwt>0</asrwt>
<pdfrwt beam="1">  1        2 0.81555236E-02 0.48197839E+02</pdfrwt>
<pdfrwt beam="2">  1       -2 0.16854527E-02 0.48197839E+02</pdfrwt>
<totfact> 0.56992806E+05</totfact>
</mgrwt>
</event>
<event>
 4    1  0.4834411E-002  0.4592094E+02  0.7818608E-02  0.1468673E+00
          2   -1    0    0    0  501  0.00000000000E+00  0.00000000000E+00  0.14322099570E+02  0.14322099797E+02  0.25500000000E-02 0.  1.
         -2   -1    0    0  501    0 -0.00000000000E+00 -0.00000000000E+00 -0.36809073902E+02  0.36809073991E+02  0.25500000000E-02 0.  1.
          2    1    1    2    0  502 -0.48986513526E+01 -0.21831221037E+02 -0.55024946030E+01  0.23040756290E+02  0.25500000000E-02 0.  1.
         -2    1    1    2  502    0  0.48986513526E+01  0.21831221037E+02 -0.16984479729E+02  0.28090417498E+02  0.25500000000E-02 0.  1.
<mgrwt>
<rscale>  0 0.45920942E+02</rscale>
<asrwt>0</asrwt>
<pdfrwt beam="1">  1        2 0.22034000E-02 0.45920942E+02</pdfrwt>
<pdfrwt beam="2">  1       -2 0.56629344E-02 0.45920942E+02</pdfrwt>
<totfact> 0.52487038E+05</totfact>
</mgrwt>
</event>
<event>
 4    1  0.4834411E-002  0.7311652E+02  0.7818608E-02  0.1349805E+00
         -2   -1    0    0  501    0 -0.00000000000E+00  0.00000000000E+00  0.23457443489E+02  0.23457443627E+02  0.25500000000E-02 0. -1.
          2   -1    0    0    0  501  0.00000000000E+00 -0.00000000000E+00 -0.56975791158E+02  0.56975791215E+02  0.25500000000E-02 0. -1.
          2    1    1    2    0  502  0.97488409070E+01 -0.21444533553E+02  0.13995552800E+02  0.27400427424E+02  0.25500000000E-02 0. -1.
         -2    1    1    2  502    0 -0.97488409070E+01  0.21444533553E+02 -0.47513900470E+02  0.53032807418E+02  0.25500000000E-02 0. -1.
<mgrwt>
<rscale>  0 0.73116521E+02</rscale>
<asrwt>0</asrwt>
<pdfrwt beam="2">  1        2 0.87655063E-02 0.73116521E+02</pdfrwt>
<pdfrwt beam="1">  1       -2 0.36088375E-02 0.73116521E+02</pdfrwt>
<totfact> 0.19294686E+05</totfact>
</mgrwt>
</event>
<event>
 4    1  0.4834411E-002  0.7103878E+02  0.7818608E-02  0.1356596E+00
         -2   -1    0    0  501    0 -0.00000000000E+00  0.00000000000E+00  0.17526058959E+01  0.17526077510E+01  0.25500000000E-02 0. -1.
          2   -1    0    0    0  501  0.00000000000E+00 -0.00000000000E+00 -0.71985743979E+03  0.71985743979E+03  0.25500000000E-02 0. -1.
          2    1    1    2    0  502  0.34717504000E+02 -0.45863899192E+01 -0.41939368792E+03  0.42085318762E+03  0.25500000000E-02 0.  1.
         -2    1    1    2  502    0 -0.34717504000E+02  0.45863899192E+01 -0.29871114597E+03  0.30075685992E+03  0.25500000000E-02 0.  1.
<mgrwt>
<rscale>  0 0.71038780E+02</rscale>
<asrwt>0</asrwt>
<pdfrwt beam="2">  1        2 0.11074706E+00 0.71038780E+02</pdfrwt>
<pdfrwt beam="1">  1       -2 0.26963239E-03 0.71038780E+02</pdfrwt>
<totfact> 0.45703318E+05</totfact>
</mgrwt>
</event>
<event>
 4    1  0.4834411E-002  0.4928348E+02  0.7818608E-02  0.1449245E+00
          2   -1    0    0    0  501  0.00000000000E+00  0.00000000000E+00  0.10145673749E+04  0.10145673749E+04  0.25500000000E-02 0. -1.
         -2   -1    0    0  501    0 -0.00000000000E+00 -0.00000000000E+00 -0.59849404836E+00  0.59849948072E+00  0.25500000000E-02 0. -1.
          2    1    1    2    0  502 -0.20397416663E+02  0.33012217764E+01  0.78354388770E+03  0.78381629010E+03  0.25500000000E-02 0.  1.
         -2    1    1    2  502    0  0.20397416663E+02 -0.33012217764E+01  0.23042499317E+03  0.23134958430E+03  0.25500000000E-02 0.  1.
<mgrwt>
<rscale>  0 0.49283478E+02</rscale>
<asrwt>0</asrwt>
<pdfrwt beam="1">  1        2 0.15608634E+00 0.49283478E+02</pdfrwt>
<pdfrwt beam="2">  1       -2 0.92076986E-04 0.49283478E+02</pdfrwt>
<totfact> 0.12004038E+06</totfact>
</mgrwt>
</event>
<event>
 4    1  0.4834411E-002  0.4202872E+02  0.7818608E-02  0.1493792E+00
          2   -1    0    0    0  501  0.00000000000E+00  0.00000000000E+00  0.23082613749E+03  0.23082613750E+03  0.25500000000E-02 0. -1.
         -2   -1    0    0  501    0 -0.00000000000E+00 -0.00000000000E+00 -0.19131414381E+01  0.19131431375E+01  0.25500000000E-02 0. -1.
          2    1    1    2    0  502  0.16171314018E+02 -0.13232287261E+02  0.12683704581E+03  0.12854664919E+03  0.25500000000E-02 0.  1.
         -2    1    1    2  502    0 -0.16171314018E+02  0.13232287261E+02  0.10207595024E+03  0.10419263144E+03  0.25500000000E-02 0.  1.
<mgrwt>
<rscale>  0 0.42028716E+02</rscale>
<asrwt>0</asrwt>
<pdfrwt beam="1">  1        2 0.35511705E-01 0.42028716E+02</pdfrwt>
<pdfrwt beam="2">  1       -2 0.29432966E-03 0.42028716E+02</pdfrwt>
<totfact> 0.11867041E+06</totfact>
</mgrwt>
</event>
<event>
 4    1  0.4834411E-002  0.6283663E+02  0.7818608E-02  0.1386299E+00
         -2   -1    0    0  501    0 -0.00000000000E+00  0.00000000000E+00  0.17908710471E+02  0.17908710653E+02  0.25500000000E-02 0. -1.
          2   -1    0    0    0  501  0.00000000000E+00 -0.00000000000E+00 -0.55119022939E+02  0.55119022998E+02  0.25500000000E-02 0. -1.
          2    1    1    2    0  502  0.91547443834E+01  0.21455761676E+02 -0.43064963798E+02  0.48977037143E+02  0.25500000000E-02 0. -1.
         -2    1    1    2  502    0 -0.91547443834E+01 -0.21455761676E+02  0.58546513305E+01  0.24050696508E+02  0.25500000000E-02 0. -1.
<mgrwt>
<rscale>  0 0.62836634E+02</rscale>
<asrwt>0</asrwt>
<pdfrwt beam="2">  1        2 0.84798496E-02 0.62836634E+02</pdfrwt>
<pdfrwt beam="1">  1       -2 0.27551863E-02 0.62836634E+02</pdfrwt>
<totfact> 0.28784864E+05</totfact>
</mgrwt>
</event>
<event>
 4    1  0.4834411E-002  0.1030603E+03  0.7818608E-02  0.1273989E+00
          2   -1    0    0    0  501  0.00000000000E+00  0.00000000000E+00  0.10527742153E+04  0.10527742153E+04  0.25500000000E-02 0. -1.
         -2   -1    0    0  501    0 -0.00000000000E+00 -0.00000000000E+00 -0.25222438986E+01  0.25222451876E+01  0.25500000000E-02 0. -1.
          2    1    1    2    0  502 -0.29904566023E+01 -0.22620223410E+02  0.99822868535E+03  0.99848942188E+03  0.25500000000E-02 0. -1.
         -2    1    1    2  502    0  0.29904566023E+01  0.22620223410E+02  0.52023286036E+02  0.56807038598E+02  0.25500000000E-02 0. -1.
<mgrwt>
<rscale>  0 0.10306025E+03</rscale>
<asrwt>0</asrwt>
<pdfrwt beam="1">  1        2 0.16196509E+00 0.10306025E+03</pdfrwt>
<pdfrwt beam="2">  1       -2 0.38803805E-03 0.10306025E+03</pdfrwt>
<totfact> 0.18095997E+05</totfact>
</mgrwt>
</event>
<event>
 4    1  0.4834411E-002  0.5109257E+02  0.7818608E-02  0.1439536E+00
         -2   -1    0    0  501    0 -0.00000000000E+00  0.00000000000E+00  0.40218534129E+01  0.40218542213E+01  0.25500000000E-02 0. -1.
          2   -1    0    0    0  501  0.00000000000E+00 -0.00000000000E+00 -0.16226663915E+03  0.16226663917E+03  0.25500000000E-02 0. -1.
          2    1    1    2    0  502 -0.25376231004E+02  0.28786142440E+01 -0.81110606231E+02  0.85036286193E+02  0.25500000000E-02 0. -1.
         -2    1    1    2  502    0  0.25376231004E+02 -0.28786142440E+01 -0.77134179510E+02  0.81252207202E+02  0.25500000000E-02 0. -1.
<mgrwt>
<rscale>  0 0.51092571E+02</rscale>
<asrwt>0</asrwt>
<pdfrwt beam="2">  1        2 0.24964093E-01 0.51092571E+02</pdfrwt>
<pdfrwt beam="1">  1       -2 0.61874687E-03 0.51092571E+02</pdfrwt>
<totfact> 0.65170937E+05</totfact>
</mgrwt>
</event>
<event>
 4    1  0.4834411E-002  0.5299178E+02  0.7818608E-02  0.1429842E+00
         -2   -1    0    0  501    0 -0.00000000000E+00  0.00000000000E+00  0.77179909852E+00  0.77180331107E+00  0.25500000000E-02 0. -1.
          2   -1    0    0    0  501  0.00000000000E+00 -0.00000000000E+00 -0.90960234969E+03  0.90960234970E+03  0.25500000000E-02 0. -1.
          2    1    1    2    0  502  0.20375403538E+02  0.11100105570E+02 -0.67419436091E+03  0.67459351146E+03  0.25500000000E-02 0. -1.
         -2    1    1    2  502    0 -0.20375403538E+02 -0.11100105570E+02 -0.23463618969E+03  0.23578064155E+03  0.25500000000E-02 0. -1.
<mgrwt>
<rscale>  0 0.52991780E+02</rscale>
<asrwt>0</asrwt>
<pdfrwt beam="2">  1        2 0.13993797E+00 0.52991780E+02</pdfrwt>
<pdfrwt beam="1">  1       -2 0.11873937E-03 0.52991780E+02</pdfrwt>
<totfact> 0.99568481E+05</totfact>
</mgrwt>
</event>
<event>
 4    1  0.4834411E-002  0.1060925E+03  0.7818608E-02  0.1267982E+00
          2   -1    0    0    0  501  0.00000000000E+00  0.00000000000E+00  0.20854403766E+03  0.20854403767E+03  0.25500000000E-02 0.  1.
         -2   -1    0    0  501    0 -0.00000000000E+00 -0.00000000000E+00 -0.13493098170E+02  0.13493098411E+02  0.25500000000E-02 0.  1.
          2    1    1    2    0  502  0.28998926966E+02  0.52484162102E+01  0.52156820370E+01  0.29928030064E+02  0.25500000000E-02 0. -1.
         -2    1    1    2  502    0 -0.28998926966E+02 -0.52484162102E+01  0.18983525745E+03  0.19210910602E+03  0.25500000000E-02 0. -1.
<mgrwt>
<rscale>  0 0.10609251E+03</rscale>
<asrwt>0</asrwt>
<pdfrwt beam="1">  1        2 0.32083698E-01 0.10609251E+03</pdfrwt>
<pdfrwt beam="2">  1       -2 0.20758613E-02 0.10609251E+03</pdfrwt>
<totfact> 0.10407724E+05</totfact>
</mgrwt>
</event>
<event>
 4    1  0.4834411E-002  0.1601050E+03  0.7818608E-02  0.1188578E+00
          2   -1    0    0    0  501  0.00000000000E+00  0.00000000000E+00  0.52184717327E+02  0.52184717390E+02  0.25500000000E-02 0. -1.
         -2   -1    0    0  501    0 -0.00000000000E+00 -0.00000000000E+00 -0.12280235898E+03  0.12280235901E+03  0.25500000000E-02 0. -1.
          2    1    1    2    0  502  0.30449296395E+02  0.17050047147E+02 -0.11405098341E+03  0.11927066103E+03  0.25500000000E-02 0. -1.
         -2    1    1    2  502    0 -0.30449296395E+02 -0.17050047147E+02  0.43433341758E+02  0.55716415368E+02  0.25500000000E-02 0. -1.
<mgrwt>
<rscale>  0 0.16010505E+03</rscale>
<asrwt>0</asrwt>
<pdfrwt beam="1">  1        2 0.80284181E-02 0.16010505E+03</pdfrwt>
<pdfrwt beam="2">  1       -2 0.18892671E-01 0.16010505E+03</pdfrwt>
<totfact> 0.18483220E+04</totfact>
</mgrwt>
</event>
<event>
 4    1  0.4834411E-002  0.7708194E+02  0.7818608E-02  0.1337543E+00
          2   -1    0    0    0  501  0.00000000000E+00  0.00000000000E+00  0.39937767149E+03  0.39937767150E+03  0.25500000000E-02 0.  1.
         -2   -1    0    0  501    0 -0.00000000000E+00 -0.00000000000E+00 -0.37193019029E+01  0.37193027771E+01  0.25500000000E-02 0.  1.
          2    1    1    2    0  502 -0.70670263899E+01  0.35927146589E+02  0.13492253606E+03  0.13980269478E+03  0.25500000000E-02 0. -1.
         -2    1    1    2  502    0  0.70670263899E+01 -0.35927146589E+02  0.26073583353E+03  0.26329427949E+03  0.25500000000E-02 0. -1.
<mgrwt>
<rscale>  0 0.77081939E+02</rscale>
<asrwt>0</asrwt>
<pdfrwt beam="1">  1        2 0.61442698E-01 0.77081939E+02</pdfrwt>
<pdfrwt beam="2">  1       -2 0.57220055E-03 0.77081939E+02</pdfrwt>
<totfact> 0.31034312E+05</totfact>
</mgrwt>
</event>
<event>
 4    1  0.4834411E-002  0.6874110E+02  0.7818608E-02  0.1364427E+00
         -2   -1    0    0  501    0 -0.00000000000E+00  0.00000000000E+00  0.36778752458E+01  0.36778761298E+01  0.25500000000E-02 0. -1.
          2   -1    0    0    0  501  0.00000000000E+00 -0.00000000000E+00 -0.32120028492E+03  0.32120028493E+03  0.25500000000E-02 0. -1.
          2    1    1    2    0  502 -0.10013066665E+02  0.17850295578E+02 -0.28926012551E+03  0.28998330085E+03  0.25500000000E-02 0.  1.
         -2    1    1    2  502    0  0.10013066665E+02 -0.17850295578E+02 -0.28262284164E+02  0.34894860208E+02  0.25500000000E-02 0.  1.
<mgrwt>
<rscale>  0 0.68741100E+02</rscale>
<asrwt>0</asrwt>
<pdfrwt beam="2">  1        2 0.49415406E-01 0.68741100E+02</pdfrwt>
<pdfrwt beam="1">  1       -2 0.56582728E-03 0.68741100E+02</pdfrwt>
<totfact> 0.38655107E+05</totfact>
</mgrwt>
</event>
<event>
 4    1  0.4834411E-002  0.5690088E+02  0.7818608E-02  0.1411317E+00
          2   -1    0    0    0  501  0.00000000000E+00  0.00000000000E+00  0.16301671969E+04  0.16301671969E+04  0.25500000000E-02 0. -1.
         -2   -1    0    0  501    0 -0.00000000000E+00 -0.00000000000E+00 -0.49652713898E+00  0.49653368691E+00  0.25500000000E-02 0. -1.
          2    1    1    2    0  502 -0.92819932597E+01  0.18977469671E+02  0.13609391149E+04  0.13611030726E+04  0.25500000000E-02 0. -1.
         -2    1    1    2  502    0  0.92819932597E+01 -0.18977469671E+02  0.26873155483E+03  0.26956065797E+03  0.25500000000E-02 0. -1.
<mgrwt>
<rscale>  0 0.56900882E+02</rscale>
<asrwt>0</asrwt>
<pdfrwt beam="1">  1        2 0.25079720E+00 0.56900882E+02</pdfrwt>
<pdfrwt beam="2">  1       -2 0.76388610E-04 0.56900882E+02</pdfrwt>
<totfact> 0.76607258E+05</totfact>
</mgrwt>
</event>
<event>
 4    1  0.4834411E-002  0.6249593E+02  0.7818608E-02  0.1387646E+00
          2   -1    0    0    0  501  0.00000000000E+00  0.00000000000E+00  0.34329209534E+02  0.34329209629E+02  0.25500000000E-02 0. -1.
         -2   -1    0    0  501    0 -0.00000000000E+00 -0.00000000000E+00 -0.28443279223E+02  0.28443279337E+02  0.25500000000E-02 0. -1.
          2    1    1    2    0  502 -0.17377641432E+02 -0.22160528293E+02 -0.10658148973E+02  0.30110921308E+02  0.25500000000E-02 0. -1.
         -2    1    1    2  502    0  0.17377641432E+02  0.22160528293E+02  0.16544079284E+02  0.32661567658E+02  0.25500000000E-02 0. -1.
<mgrwt>
<rscale>  0 0.62495929E+02</rscale>
<asrwt>0</asrwt>
<pdfrwt beam="1">  1        2 0.52814169E-02 0.62495929E+02</pdfrwt>
<pdfrwt beam="2">  1       -2 0.43758891E-02 0.62495929E+02</pdfrwt>
<totfact> 0.26541332E+05</totfact>
</mgrwt>
</event>
<event>
 4    1  0.4834411E-002  0.6138830E+02  0.7818608E-02  0.1392096E+00
         -2   -1    0    0  501    0 -0.00000000000E+00  0.00000000000E+00  0.65058090348E+00  0.65058590092E+00  0.25500000000E-02 0. -1.
          2   -1    0    0    0  501  0.00000000000E+00 -0.00000000000E+00 -0.14481324029E+04  0.14481324029E+04  0.25500000000E-02 0. -1.
          2    1    1    2    0  502 -0.10533212445E+02  0.18871645242E+02 -0.12381212198E+04  0.12383098330E+04  0.25500000000E-02 0. -1.
         -2    1    1    2  502    0  0.10533212445E+02 -0.18871645242E+02 -0.20936060218E+03  0.21047315579E+03  0.25500000000E-02 0. -1.
<mgrwt>
<rscale>  0 0.61388302E+02</rscale>
<asrwt>0</asrwt>
<pdfrwt beam="2">  1        2 0.22278702E+00 0.61388302E+02</pdfrwt>
<pdfrwt beam="1">  1       -2 0.10009091E-03 0.61388302E+02</pdfrwt>
<totfact> 0.66361314E+05</totfact>
</mgrwt>
</event>
<event>
 4    1  0.4834411E-002  0.7583797E+02  0.7818608E-02  0.1341296E+00
         -2   -1    0    0  501    0 -0.00000000000E+00  0.00000000000E+00  0.16218784227E+01  0.16218804273E+01  0.25500000000E-02 0. -1.
          2   -1    0    0    0  501  0.00000000000E+00 -0.00000000000E+00 -0.88653297492E+03  0.88653297493E+03  0.25500000000E-02 0. -1.
          2    1    1    2    0  502  0.32300564757E+02  0.16524605804E+02 -0.31338727044E+03  0.31548053880E+03  0.25500000000E-02 0. -1.
         -2    1    1    2  502    0 -0.32300564757E+02 -0.16524605804E+02 -0.57152382606E+03  0.57267431655E+03  0.25500000000E-02 0. -1.
<mgrwt>
<rscale>  0 0.75837975E+02</rscale>
<asrwt>0</asrwt>
<pdfrwt beam="2">  1        2 0.13638930E+00 0.75837975E+02</pdfrwt>
<pdfrwt beam="1">  1       -2 0.24952062E-03 0.75837975E+02</pdfrwt>
<totfact> 0.40024874E+05</totfact>
</mgrwt>
</event>
<event>
 4    1  0.4834411E-002  0.6059383E+02  0.7818608E-02  0.1395356E+00
         -2   -1    0    0  501    0 -0.00000000000E+00  0.00000000000E+00  0.80319336936E+03  0.80319336936E+03  0.25500000000E-02 0. -1.
          2   -1    0    0    0  501  0.00000000000E+00 -0.00000000000E+00 -0.11428155120E+01  0.11428183569E+01  0.25500000000E-02 0. -1.
          2    1    1    2    0  502  0.27749794729E+02  0.38870055573E+01  0.55396318144E+03  0.55467140391E+03  0.25500000000E-02 0.  1.
         -2    1    1    2  502    0 -0.27749794729E+02 -0.38870055573E+01  0.24808737241E+03  0.24966478381E+03  0.25500000000E-02 0.  1.
<mgrwt>
<rscale>  0 0.60593828E+02</rscale>
<asrwt>0</asrwt>
<pdfrwt beam="2">  1        2 0.17581734E-03 0.60593828E+02</pdfrwt>
<pdfrwt beam="1">  1       -2 0.12356867E+00 0.60593828E+02</pdfrwt>
<totfact> 0.67370437E+04</totfact>
</mgrwt>
</event>
<event>
 4    1  0.4834411E-002  0.7008541E+02  0.7818608E-02  0.1359803E+00
         -2   -1    0    0  501    0 -0.00000000000E+00  0.00000000000E+00  0.10049472725E+03  0.10049472728E+03  0.25500000000E-02 0.  1.
          2   -1    0    0    0  501  0.00000000000E+00 -0.00000000000E+00 -0.12219459961E+02  0.12219460227E+02  0.25500000000E-02 0.  1.
          2    1    1    2    0  502  0.34172470345E+02  0.47867923035E+01  0.34312852129E+02  0.48662541424E+02  0.25500000000E-02 0.  1.
         -2    1    1    2  502    0 -0.34172470345E+02 -0.47867923035E+01  0.53962415161E+02  0.64051646088E+02  0.25500000000E-02 0.  1.
<mgrwt>
<rscale>  0 0.70085414E+02</rscale>
<asrwt>0</asrwt>
<pdfrwt beam="2">  1        2 0.18799170E-02 0.70085414E+02</pdfrwt>
<pdfrwt beam="1">  1       -2 0.15460727E-01 0.70085414E+02</pdfrwt>
<totfact> 0.15335935E+05</totfact>
</mgrwt>
</event>
<event>
 4    1  0.4834411E-002  0.5616119E+02  0.7818608E-02  0.1414686E+00
         -2   -1    0    0  501    0 -0.00000000000E+00  0.00000000000E+00  0.48567732734E+00  0.48568402155E+00  0.25500000000E-02 0.  1.
          2   -1    0    0    0  501  0.00000000000E+00 -0.00000000000E+00 -0.16235356212E+04  0.16235356212E+04  0.25500000000E-02 0.  1.
          2    1    1    2    0  502 -0.10951001215E+02  0.25595365443E+02 -0.70538403318E+03  0.70593319898E+03  0.25500000000E-02 0. -1.
         -2    1    1    2  502    0  0.10951001215E+02 -0.25595365443E+02 -0.91766591071E+03  0.91808810626E+03  0.25500000000E-02 0. -1.
<mgrwt>
<rscale>  0 0.56161192E+02</rscale>
<asrwt>0</asrwt>
<pdfrwt beam="2">  1        2 0.24977037E+00 0.56161192E+02</pdfrwt>
<pdfrwt beam="1">  1       -2 0.74721404E-04 0.56161192E+02</pdfrwt>
<totfact> 0.79327049E+05</totfact>
</mgrwt>
</event>
<event>
 4    1  0.4834411E-002  0.6876251E+02  0.7818608E-02  0.1364352E+00
         -2   -1    0    0  501    0 -0.00000000000E+00  0.00000000000E+00  0.48976375486E+00  0.48977039322E+00  0.25500000000E-02 0.  1.
          2   -1    0    0    0  501  0.00000000000E+00 -0.00000000000E+00 -0.24135364359E+04  0.24135364359E+04  0.25500000000E-02 0.  1.
          2    1    1    2    0  502  0.13482285146E+02  0.27350641692E+02 -0.17640917388E+04  0.17643552625E+04  0.25500000000E-02 0. -1.
         -2    1    1    2  502    0 -0.13482285146E+02 -0.27350641692E+02 -0.64895493341E+03  0.64967094380E+03  0.25500000000E-02 0. -1.
<mgrwt>
<rscale>  0 0.68762510E+02</rscale>
<asrwt>0</asrwt>
<pdfrwt beam="2">  1        2 0.37130377E+00 0.68762510E+02</pdfrwt>
<pdfrwt beam="1">  1       -2 0.75350714E-04 0.68762510E+02</pdfrwt>
<totfact> 0.32875422E+05</totfact>
</mgrwt>
</event>
<event>
 4    1  0.4834411E-002  0.5341603E+02  0.7818608E-02  0.1427742E+00
         -2   -1    0    0  501    0 -0.00000000000E+00  0.00000000000E+00  0.69559930454E+00  0.69560397855E+00  0.25500000000E-02 0. -1.
          2   -1    0    0    0  501  0.00000000000E+00 -0.00000000000E+00 -0.10254690599E+04  0.10254690599E+04  0.25500000000E-02 0. -1.
          2    1    1    2    0  502  0.76561899724E+01  0.25497916938E+02 -0.47137742834E+03  0.47212862756E+03  0.25500000000E-02 0.  1.
         -2    1    1    2  502    0 -0.76561899724E+01 -0.25497916938E+02 -0.55339603225E+03  0.55403603631E+03  0.25500000000E-02 0.  1.
<mgrwt>
<rscale>  0 0.53416026E+02</rscale>
<asrwt>0</asrwt>
<pdfrwt beam="2">  1        2 0.15776326E+00 0.53416026E+02</pdfrwt>
<pdfrwt beam="1">  1       -2 0.10701646E-03 0.53416026E+02</pdfrwt>
<totfact> 0.98381015E+05</totfact>
</mgrwt>
</event>
<event>
 4    1  0.4834411E-002  0.4288583E+02  0.7818608E-02  0.1487989E+00
         -2   -1    0    0  501    0 -0.00000000000E+00  0.00000000000E+00  0.18112252371E+00  0.18114047338E+00  0.25500000000E-02 0.  1.
          2   -1    0    0    0  501  0.00000000000E+00 -0.00000000000E+00 -0.25384794912E+04  0.25384794912E+04  0.25500000000E-02 0.  1.
          2    1    1    2    0  502 -0.13176687024E+02  0.16912446264E+02 -0.12467898247E+04  0.12469741468E+04  0.25500000000E-02 0. -1.
         -2    1    1    2  502    0  0.13176687024E+02 -0.16912446264E+02 -0.12915085440E+04  0.12916864848E+04  0.25500000000E-02 0. -1.
<mgrwt>
<rscale>  0 0.42885830E+02</rscale>
<asrwt>0</asrwt>
<pdfrwt beam="2">  1        2 0.39050682E+00 0.42885830E+02</pdfrwt>
<pdfrwt beam="1">  1       -2 0.27868418E-04 0.42885830E+02</pdfrwt>
<totfact> 0.10040924E+06</totfact>
</mgrwt>
</event>
<event>
 4    1  0.4834411E-002  0.1549340E+03  0.7818608E-02  0.1194538E+00
         -2   -1    0    0  501    0 -0.00000000000E+00  0.00000000000E+00  0.23396536618E+01  0.23396550514E+01  0.25500000000E-02 0.  1.
          2   -1    0    0    0  501  0.00000000000E+00 -0.00000000000E+00 -0.25649656609E+04  0.25649656609E+04  0.25500000000E-02 0.  1.
          2    1    1    2    0  502 -0.60144339395E+02 -0.28440565603E+02 -0.62371431758E+03  0.62725254666E+03  0.25500000000E-02 0.  1.
         -2    1    1    2  502    0  0.60144339395E+02  0.28440565603E+02 -0.19389116897E+04  0.19400527693E+04  0.25500000000E-02 0.  1.
<mgrwt>
<rscale>  0 0.15493396E+03</rscale>
<asrwt>0</asrwt>
<pdfrwt beam="2">  1        2 0.39460785E+00 0.15493396E+03</pdfrwt>
<pdfrwt beam="1">  1       -2 0.35994888E-03 0.15493396E+03</pdfrwt>
<totfact> 0.33623201E+04</totfact>
</mgrwt>
</event>
<event>
 4    1  0.4834411E-002  0.1062643E+03  0.7818608E-02  0.1267648E+00
         -2   -1    0    0  501    0 -0.00000000000E+00  0.00000000000E+00  0.37268293994E+01  0.37268302718E+01  0.25500000000E-02 0. -1.
          2   -1    0    0    0  501  0.00000000000E+00 -0.00000000000E+00 -0.75748692023E+03  0.75748692024E+03  0.25500000000E-02 0. -1.
          2    1    1    2    0  502 -0.27174125284E+02  0.30495909654E+02 -0.62028724001E+03  0.62163067308E+03  0.25500000000E-02 0.  1.
         -2    1    1    2  502    0  0.27174125284E+02 -0.30495909654E+02 -0.13347285082E+03  0.13958307743E+03  0.25500000000E-02 0.  1.
<mgrwt>
<rscale>  0 0.10626429E+03</rscale>
<asrwt>0</asrwt>
<pdfrwt beam="2">  1        2 0.11653633E+00 0.10626429E+03</pdfrwt>
<pdfrwt beam="1">  1       -2 0.57335904E-03 0.10626429E+03</pdfrwt>
<totfact> 0.16061388E+05</totfact>
</mgrwt>
</event>
<event>
 4    1  0.4834411E-002  0.4223011E+02  0.7818608E-02  0.1492413E+00
         -2   -1    0    0  501    0 -0.00000000000E+00  0.00000000000E+00  0.23174987250E+00  0.23176390121E+00  0.25500000000E-02 0. -1.
          2   -1    0    0    0  501  0.00000000000E+00 -0.00000000000E+00 -0.19237639019E+04  0.19237639019E+04  0.25500000000E-02 0. -1.
          2    1    1    2    0  502  0.18515076048E+02 -0.10125813202E+02 -0.99415508257E+03  0.99437903655E+03  0.25500000000E-02 0.  1.
         -2    1    1    2  502    0 -0.18515076048E+02  0.10125813202E+02 -0.92937706945E+03  0.92961662924E+03  0.25500000000E-02 0.  1.
<mgrwt>
<rscale>  0 0.42230109E+02</rscale>
<asrwt>0</asrwt>
<pdfrwt beam="2">  1        2 0.29595089E+00 0.42230109E+02</pdfrwt>
<pdfrwt beam="1">  1       -2 0.35656446E-04 0.42230109E+02</pdfrwt>
<totfact> 0.14444604E+06</totfact>
</mgrwt>
</event>
<event>
 4    1  0.4834411E-002  0.1117879E+03  0.7818608E-02  0.1257294E+00
          2   -1    0    0    0  501  0.00000000000E+00  0.00000000000E+00  0.13361781893E+04  0.13361781893E+04  0.25500000000E-02 0.  1.
         -2   -1    0    0  501    0 -0.00000000000E+00 -0.00000000000E+00 -0.23381128537E+01  0.23381142443E+01  0.25500000000E-02 0.  1.
          2    1    1    2    0  502 -0.25017370182E+02  0.21110058560E+01  0.68976105075E+02  0.73403189538E+02  0.25500000000E-02 0.  1.
         -2    1    1    2  502    0  0.25017370182E+02 -0.21110058560E+01  0.12648639713E+04  0.12651131140E+04  0.25500000000E-02 0.  1.
<mgrwt>
<rscale>  0 0.11178795E+03</rscale>
<asrwt>0</asrwt>
<pdfrwt beam="1">  1        2 0.20556631E+00 0.11178795E+03</pdfrwt>
<pdfrwt beam="2">  1       -2 0.35970901E-03 0.11178795E+03</pdfrwt>
<totfact> 0.14206709E+05</totfact>
</mgrwt>
</event>
<event>
 4    1  0.4834411E-002  0.4322650E+02  0.7818608E-02  0.1485727E+00
          2   -1    0    0    0  501  0.00000000000E+00  0.00000000000E+00  0.54373308760E+01  0.54373314739E+01  0.25500000000E-02 0. -1.
         -2   -1    0    0  501    0 -0.00000000000E+00 -0.00000000000E+00 -0.85912122505E+02  0.85912122543E+02  0.25500000000E-02 0. -1.
          2    1    1    2    0  502  0.17877837566E+02 -0.11329848863E+02 -0.49485260159E+02  0.53821682720E+02  0.25500000000E-02 0.  1.
         -2    1    1    2  502    0 -0.17877837566E+02  0.11329848863E+02 -0.30989531470E+02  0.37527771297E+02  0.25500000000E-02 0.  1.
<mgrwt>
<rscale>  0 0.43226504E+02</rscale>
<asrwt>0</asrwt>
<pdfrwt beam="1">  1        2 0.83651255E-03 0.43226504E+02</pdfrwt>
<pdfrwt beam="2">  1       -2 0.13217249E-01 0.43226504E+02</pdfrwt>
<totfact> 0.52079893E+05</totfact>
</mgrwt>
</event>
<event>
 4    1  0.4834411E-002  0.9358701E+02  0.7818608E-02  0.1294391E+00
         -2   -1    0    0  501    0 -0.00000000000E+00  0.00000000000E+00  0.21971764741E+03  0.21971764743E+03  0.25500000000E-02 0. -1.
          2   -1    0    0    0  501  0.00000000000E+00 -0.00000000000E+00 -0.99656633375E+01  0.99656636637E+01  0.25500000000E-02 0. -1.
          2    1    1    2    0  502  0.42335779478E+02 -0.19169865636E+02  0.91471767875E+02  0.10260061548E+03  0.25500000000E-02 0. -1.
         -2    1    1    2  502    0 -0.42335779478E+02  0.19169865636E+02  0.11828021620E+03  0.12708269561E+03  0.25500000000E-02 0. -1.
<mgrwt>
<rscale>  0 0.93587011E+02</rscale>
<asrwt>0</asrwt>
<pdfrwt beam="2">  1        2 0.15331790E-02 0.93587011E+02</pdfrwt>
<pdfrwt beam="1">  1       -2 0.33802714E-01 0.93587011E+02</pdfrwt>
<totfact> 0.55894957E+04</totfact>
</mgrwt>
</event>
<event>
 4    1  0.4834411E-002  0.9109099E+02  0.7818608E-02  0.1300231E+00
          2   -1    0    0    0  501  0.00000000000E+00  0.00000000000E+00  0.17073920804E+03  0.17073920806E+03  0.25500000000E-02 0. -1.
         -2   -1    0    0  501    0 -0.00000000000E+00 -0.00000000000E+00 -0.12149478276E+02  0.12149478544E+02  0.25500000000E-02 0. -1.
          2    1    1    2    0  502  0.23836702482E+02 -0.38225503204E+02  0.92765536332E+02  0.10312527439E+03  0.25500000000E-02 0.  1.
         -2    1    1    2  502    0 -0.23836702482E+02  0.38225503204E+02  0.65824193432E+02  0.79763412214E+02  0.25500000000E-02 0.  1.
<mgrwt>
<rscale>  0 0.91090995E+02</rscale>
<asrwt>0</asrwt>
<pdfrwt beam="1">  1        2 0.26267568E-01 0.91090995E+02</pdfrwt>
<pdfrwt beam="2">  1       -2 0.18691507E-02 0.91090995E+02</pdfrwt>
<totfact> 0.14657330E+05</totfact>
</mgrwt>
</event>
<event>
 4    1  0.4834411E-002  0.5054345E+02  0.7818608E-02  0.1442432E+00
         -2   -1    0    0  501    0 -0.00000000000E+00  0.00000000000E+00  0.15312430205E+01  0.15312451438E+01  0.25500000000E-02 0. -1.
          2   -1    0    0    0  501  0.00000000000E+00 -0.00000000000E+00 -0.41708569115E+03  0.41708569116E+03  0.25500000000E-02 0. -1.
          2    1    1    2    0  502 -0.13319297920E+02 -0.21186899914E+02 -0.23690882250E+03  0.23822694770E+03  0.25500000000E-02 0.  1.
         -2    1    1    2  502    0  0.13319297920E+02  0.21186899914E+02 -0.17864562563E+03  0.18038998860E+03  0.25500000000E-02 0.  1.
<mgrwt>
<rscale>  0 0.50543447E+02</rscale>
<asrwt>0</asrwt>
<pdfrwt beam="2">  1        2 0.64166939E-01 0.50543447E+02</pdfrwt>
<pdfrwt beam="1">  1       -2 0.23557635E-03 0.50543447E+02</pdfrwt>
<totfact> 0.92230404E+05</totfact>
</mgrwt>
</event>
<event>
 4    1  0.4834411E-002  0.6936237E+02  0.7818608E-02  0.1362275E+00
         -2   -1    0    0  501    0 -0.00000000000E+00  0.00000000000E+00  0.27101429073E+03  0.27101429074E+03  0.25500000000E-02 0. -1.
          2   -1    0    0    0  501  0.00000000000E+00 -0.00000000000E+00 -0.44380847567E+01  0.44380854893E+01  0.25500000000E-02 0. -1.
          2    1    1    2    0  502  0.21785753127E+02 -0.66485288333E+01  0.23714581884E+03  0.23823719562E+03  0.25500000000E-02 0.  1.
         -2    1    1    2  502    0 -0.21785753127E+02  0.66485288333E+01  0.29430387134E+02  0.37215180616E+02  0.25500000000E-02 0.  1.
<mgrwt>
<rscale>  0 0.69362367E+02</rscale>
<asrwt>0</asrwt>
<pdfrwt beam="2">  1        2 0.68278223E-03 0.69362367E+02</pdfrwt>
<pdfrwt beam="1">  1       -2 0.41694512E-01 0.69362367E+02</pdfrwt>
<totfact> 0.10828468E+05</totfact>
</mgrwt>
</event>
<event>
 4    1  0.4834411E-002  0.5330608E+02  0.7818608E-02  0.1428284E+00
          2   -1    0    0    0  501  0.00000000000E+00  0.00000000000E+00  0.13020679131E+04  0.13020679131E+04  0.25500000000E-02 0.  1.
         -2   -1    0    0  501    0 -0.00000000000E+00 -0.00000000000E+00 -0.54557881328E+00  0.54558477252E+00  0.25500000000E-02 0.  1.
          2    1    1    2    0  502  0.88969568205E+01 -0.25074135360E+02  0.68952547094E+03  0.69003858094E+03  0.25500000000E-02 0.  1.
         -2    1    1    2  502    0 -0.88969568205E+01  0.25074135360E+02  0.61199686335E+03  0.61257491694E+03  0.25500000000E-02 0.  1.
<mgrwt>
<rscale>  0 0.53306080E+02</rscale>
<asrwt>0</asrwt>
<pdfrwt beam="1">  1        2 0.20031735E+00 0.53306080E+02</pdfrwt>
<pdfrwt beam="2">  1       -2 0.83935994E-04 0.53306080E+02</pdfrwt>
<totfact> 0.97147406E+05</totfact>
</mgrwt>
</event>
<event>
 4    1  0.4834411E-002  0.5780695E+02  0.7818608E-02  0.1407272E+00
         -2   -1    0    0  501    0 -0.00000000000E+00  0.00000000000E+00  0.34831908150E+00  0.34832841548E+00  0.25500000000E-02 0.  1.
          2   -1    0    0    0  501  0.00000000000E+00 -0.00000000000E+00 -0.23983744682E+04  0.23983744682E+04  0.25500000000E-02 0.  1.
          2    1    1    2    0  502  0.10768511193E+02 -0.24642725151E+02 -0.16385237692E+04  0.16387444483E+04  0.25500000000E-02 0.  1.
         -2    1    1    2  502    0 -0.10768511193E+02  0.24642725151E+02 -0.75950237993E+03  0.75997834828E+03  0.25500000000E-02 0.  1.
<mgrwt>
<rscale>  0 0.57806947E+02</rscale>
<asrwt>0</asrwt>
<pdfrwt beam="2">  1        2 0.36896746E+00 0.57806947E+02</pdfrwt>
<pdfrwt beam="1">  1       -2 0.53590190E-04 0.57806947E+02</pdfrwt>
<totfact> 0.51773423E+05</totfact>
</mgrwt>
</event>
<event>
 4    1  0.4834411E-002  0.1177485E+03  0.7818608E-02  0.1246858E+00
         -2   -1    0    0  501    0 -0.00000000000E+00  0.00000000000E+00  0.42175493634E+01  0.42175501342E+01  0.25500000000E-02 0.  1.
          2   -1    0    0    0  501  0.00000000000E+00 -0.00000000000E+00 -0.82184643916E+03  0.82184643916E+03  0.25500000000E-02 0.  1.
          2    1    1    2    0  502  0.14952525225E+01  0.43987499024E+02 -0.68314110196E+03  0.68455744904E+03  0.25500000000E-02 0. -1.
         -2    1    1    2  502    0 -0.14952525225E+01 -0.43987499024E+02 -0.13448778784E+03  0.14150654025E+03  0.25500000000E-02 0. -1.
<mgrwt>
<rscale>  0 0.11774852E+03</rscale>
<asrwt>0</asrwt>
<pdfrwt beam="2">  1        2 0.12643779E+00 0.11774852E+03</pdfrwt>
<pdfrwt beam="1">  1       -2 0.64885446E-03 0.11774852E+03</pdfrwt>
<totfact> 0.12373436E+05</totfact>
</mgrwt>
</event>
<event>
 4    1  0.4834411E-002  0.5309775E+02  0.7818608E-02  0.1429315E+00
         -2   -1    0    0  501    0 -0.00000000000E+00  0.00000000000E+00  0.12339768002E+03  0.12339768004E+03  0.25500000000E-02 0. -1.
          2   -1    0    0    0  501  0.00000000000E+00 -0.00000000000E+00 -0.57119619714E+01  0.57119625406E+01  0.25500000000E-02 0. -1.
          2    1    1    2    0  502 -0.23428642899E+02  0.11671770575E+02  0.69638308201E+02  0.74395063761E+02  0.25500000000E-02 0. -1.
         -2    1    1    2  502    0  0.23428642899E+02 -0.11671770575E+02  0.48047409844E+02  0.54714578822E+02  0.25500000000E-02 0. -1.
<mgrwt>
<rscale>  0 0.53097755E+02</rscale>
<asrwt>0</asrwt>
<pdfrwt beam="2">  1        2 0.87876351E-03 0.53097755E+02</pdfrwt>
<pdfrwt beam="1">  1       -2 0.18984257E-01 0.53097755E+02</pdfrwt>
<totfact> 0.28773464E+05</totfact>
</mgrwt>
</event>
<event>
 4    1  0.4834411E-002  0.4460936E+02  0.7818608E-02  0.1476795E+00
         -2   -1    0    0  501    0 -0.00000000000E+00  0.00000000000E+00  0.10187963508E+01  0.10187995420E+01  0.25500000000E-02 0. -1.
          2   -1    0    0    0  501  0.00000000000E+00 -0.00000000000E+00 -0.48831929687E+03  0.48831929687E+03  0.25500000000E-02 0. -1.
          2    1    1    2    0  502 -0.20792036798E+02 -0.76549821444E+01 -0.27181225587E+03  0.27271378768E+03  0.25500000000E-02 0.  1.
         -2    1    1    2  502    0  0.20792036798E+02  0.76549821444E+01 -0.21548824465E+03  0.21662430873E+03  0.25500000000E-02 0.  1.
<mgrwt>
<rscale>  0 0.44609358E+02</rscale>
<asrwt>0</asrwt>
<pdfrwt beam="2">  1        2 0.75125859E-01 0.44609358E+02</pdfrwt>
<pdfrwt beam="1">  1       -2 0.15673854E-03 0.44609358E+02</pdfrwt>
<totfact> 0.13197236E+06</totfact>
</mgrwt>
</event>
<event>
 4    1  0.4834411E-002  0.4684833E+02  0.7818608E-02  0.1463122E+00
         -2   -1    0    0  501    0 -0.00000000000E+00  0.00000000000E+00  0.44625064193E+00  0.44625792757E+00  0.25500000000E-02 0. -1.
          2   -1    0    0    0  501  0.00000000000E+00 -0.00000000000E+00 -0.12295492287E+04  0.12295492287E+04  0.25500000000E-02 0. -1.
          2    1    1    2    0  502  0.60287870680E-01 -0.22992429401E+02 -0.73207280583E+03  0.73243378437E+03  0.25500000000E-02 0.  1.
         -2    1    1    2  502    0 -0.60287870680E-01  0.22992429401E+02 -0.49703017218E+03  0.49756170221E+03  0.25500000000E-02 0.  1.
<mgrwt>
<rscale>  0 0.46848335E+02</rscale>
<asrwt>0</asrwt>
<pdfrwt beam="2">  1        2 0.18915871E+00 0.46848335E+02</pdfrwt>
<pdfrwt beam="1">  1       -2 0.68655490E-04 0.46848335E+02</pdfrwt>
<totfact> 0.13487983E+06</totfact>
</mgrwt>
</event>
<event>
 4    1  0.4834411E-002  0.5488913E+02  0.7818608E-02  0.1420624E+00
         -2   -1    0    0  501    0 -0.00000000000E+00  0.00000000000E+00  0.56328905393E+02  0.56328905451E+02  0.25500000000E-02 0.  1.
          2   -1    0    0    0  501  0.00000000000E+00 -0.00000000000E+00 -0.13371537112E+02  0.13371537356E+02  0.25500000000E-02 0.  1.
          2    1    1    2    0  502 -0.82082109319E+01 -0.19566002384E+02  0.43582698713E+02  0.48473238077E+02  0.25500000000E-02 0.  1.
         -2    1    1    2  502    0  0.82082109319E+01  0.19566002384E+02 -0.62533043264E+00  0.21227204730E+02  0.25500000000E-02 0.  1.
<mgrwt>
<rscale>  0 0.54889127E+02</rscale>
<asrwt>0</asrwt>
<pdfrwt beam="2">  1        2 0.20571596E-02 0.54889127E+02</pdfrwt>
<pdfrwt beam="1">  1       -2 0.86659853E-02 0.54889127E+02</pdfrwt>
<totfact> 0.31862583E+05</totfact>
</mgrwt>
</event>
<event>
 4    1  0.4834411E-002  0.5131594E+02  0.7818608E-02  0.1438370E+00
          2   -1    0    0    0  501  0.00000000000E+00  0.00000000000E+00  0.30167292961E+03  0.30167292962E+03  0.25500000000E-02 0.  1.
         -2   -1    0    0  501    0 -0.00000000000E+00 -0.00000000000E+00 -0.21822677671E+01  0.21822692570E+01  0.25500000000E-02 0.  1.
          2    1    1    2    0  502 -0.20237967385E+02 -0.13096549489E+00  0.56358373210E+02  0.59882039989E+02  0.25500000000E-02 0. -1.
         -2    1    1    2  502    0  0.20237967385E+02  0.13096549489E+00  0.24313228863E+03  0.24397315889E+03  0.25500000000E-02 0. -1.
<mgrwt>
<rscale>  0 0.51315937E+02</rscale>
<asrwt>0</asrwt>
<pdfrwt beam="1">  1        2 0.46411186E-01 0.51315937E+02</pdfrwt>
<pdfrwt beam="2">  1       -2 0.33573386E-03 0.51315937E+02</pdfrwt>
<totfact> 0.79444585E+05</totfact>
</mgrwt>
</event>
<event>
 4    1  0.4834411E-002  0.5098563E+02  0.7818608E-02  0.1440097E+00
         -2   -1    0    0  501    0 -0.00000000000E+00  0.00000000000E+00  0.39390214778E+01  0.39390223032E+01  0.25500000000E-02 0. -1.
          2   -1    0    0    0  501  0.00000000000E+00 -0.00000000000E+00 -0.16498601229E+03  0.16498601231E+03  0.25500000000E-02 0. -1.
          2    1    1    2    0  502  0.74687906619E+01 -0.23998197227E+02 -0.94653075675E+02  0.97933145795E+02  0.25500000000E-02 0. -1.
         -2    1    1    2  502    0 -0.74687906619E+01  0.23998197227E+02 -0.66393915134E+02  0.70991888814E+02  0.25500000000E-02 0. -1.
<mgrwt>
<rscale>  0 0.50985626E+02</rscale>
<asrwt>0</asrwt>
<pdfrwt beam="2">  1        2 0.25382458E-01 0.50985626E+02</pdfrwt>
<pdfrwt beam="1">  1       -2 0.60600350E-03 0.50985626E+02</pdfrwt>
<totfact> 0.65858795E+05</totfact>
</mgrwt>
</event>
<event>
 4    1  0.4834411E-002  0.5978646E+02  0.7818608E-02  0.1398730E+00
          2   -1    0    0    0  501  0.00000000000E+00  0.00000000000E+00  0.17282313027E+04  0.17282313027E+04  0.25500000000E-02 0. -1.
         -2   -1    0    0  501    0 -0.00000000000E+00 -0.00000000000E+00 -0.51706029310E+00  0.51706658101E+00  0.25500000000E-02 0. -1.
          2    1    1    2    0  502 -0.27139140692E+02 -0.14412712429E+01  0.12238449145E+04  0.12241466354E+04  0.25500000000E-02 0.  1.
         -2    1    1    2  502    0  0.27139140692E+02  0.14412712429E+01  0.50386932786E+03  0.50460173383E+03  0.25500000000E-02 0.  1.
<mgrwt>
<rscale>  0 0.59786461E+02</rscale>
<asrwt>0</asrwt>
<pdfrwt beam="1">  1        2 0.26588289E+00 0.59786461E+02</pdfrwt>
<pdfrwt beam="2">  1       -2 0.79547876E-04 0.59786461E+02</pdfrwt>
<totfact> 0.65497543E+05</totfact>
</mgrwt>
</event>
<event>
 4    1  0.4834411E-002  0.6052205E+02  0.7818608E-02  0.1395654E+00
          2   -1    0    0    0  501  0.00000000000E+00  0.00000000000E+00  0.67086858519E+03  0.67086858520E+03  0.25500000000E-02 0. -1.
         -2   -1    0    0  501    0 -0.00000000000E+00 -0.00000000000E+00 -0.13649899722E+01  0.13649923541E+01  0.25500000000E-02 0. -1.
          2    1    1    2    0  502  0.21868298562E+02 -0.20895941614E+02  0.34509305477E+03  0.34641604945E+03  0.25500000000E-02 0. -1.
         -2    1    1    2  502    0 -0.21868298562E+02  0.20895941614E+02  0.32441054045E+03  0.32581752810E+03  0.25500000000E-02 0. -1.
<mgrwt>
<rscale>  0 0.60522052E+02</rscale>
<asrwt>0</asrwt>
<pdfrwt beam="1">  1        2 0.10321072E+00 0.60522052E+02</pdfrwt>
<pdfrwt beam="2">  1       -2 0.20999829E-03 0.60522052E+02</pdfrwt>
<totfact> 0.67635310E+05</totfact>
</mgrwt>
</event>
<event>
 4    1  0.4834411E-002  0.4815598E+02  0.7818608E-02  0.1455549E+00
          2   -1    0    0    0  501  0.00000000000E+00  0.00000000000E+00  0.55740367845E+03  0.55740367846E+03  0.25500000000E-02 0. -1.
         -2   -1    0    0  501    0 -0.00000000000E+00 -0.00000000000E+00 -0.10400877872E+01  0.10400909132E+01  0.25500000000E-02 0. -1.
          2    1    1    2    0  502  0.11017358975E+02 -0.18288243009E+02  0.14909608251E+03  0.15061701052E+03  0.25500000000E-02 0. -1.
         -2    1    1    2  502    0 -0.11017358975E+02  0.18288243009E+02  0.40726750816E+03  0.40782675886E+03  0.25500000000E-02 0. -1.
<mgrwt>
<rscale>  0 0.48155981E+02</rscale>
<asrwt>0</asrwt>
<pdfrwt beam="1">  1        2 0.85754327E-01 0.48155981E+02</pdfrwt>
<pdfrwt beam="2">  1       -2 0.16001391E-03 0.48155981E+02</pdfrwt>
<totfact> 0.11383196E+06</totfact>
</mgrwt>
</event>
<event>
 4    1  0.4834411E-002  0.5979511E+02  0.7818608E-02  0.1398694E+00
         -2   -1    0    0  501    0 -0.00000000000E+00  0.00000000000E+00  0.33890513161E+01  0.33890522754E+01  0.25500000000E-02 0.  1.
          2   -1    0    0    0  501  0.00000000000E+00 -0.00000000000E+00 -0.26375037719E+03  0.26375037720E+03  0.25500000000E-02 0.  1.
          2    1    1    2    0  502  0.18472492943E+02 -0.10529388534E+02 -0.36280389745E+02  0.42051964341E+02  0.25500000000E-02 0.  1.
         -2    1    1    2  502    0 -0.18472492943E+02  0.10529388534E+02 -0.22408093613E+03  0.22508746514E+03  0.25500000000E-02 0.  1.
<mgrwt>
<rscale>  0 0.59795107E+02</rscale>
<asrwt>0</asrwt>
<pdfrwt beam="2">  1        2 0.40576965E-01 0.59795107E+02</pdfrwt>
<pdfrwt beam="1">  1       -2 0.52139279E-03 0.59795107E+02</pdfrwt>
<totfact> 0.51518932E+05</totfact>
</mgrwt>
</event>
<event>
 4    1  0.4834411E-002  0.8047919E+02  0.7818608E-02  0.1327697E+00
         -2   -1    0    0  501    0 -0.00000000000E+00  0.00000000000E+00  0.19303607981E+03  0.19303607982E+03  0.25500000000E-02 0. -1.
          2   -1    0    0    0  501  0.00000000000E+00 -0.00000000000E+00 -0.83881995056E+01  0.83881998932E+01  0.25500000000E-02 0. -1.
          2    1    1    2    0  502  0.49129183075E+01 -0.21570083871E+02  0.17645043758E+03  0.17783183690E+03  0.25500000000E-02 0.  1.
         -2    1    1    2  502    0 -0.49129183075E+01  0.21570083871E+02  0.81974427163E+01  0.23592442818E+02  0.25500000000E-02 0.  1.
<mgrwt>
<rscale>  0 0.80479195E+02</rscale>
<asrwt>0</asrwt>
<pdfrwt beam="2">  1        2 0.12904923E-02 0.80479195E+02</pdfrwt>
<pdfrwt beam="1">  1       -2 0.29697857E-01 0.80479195E+02</pdfrwt>
<totfact> 0.86926005E+04</totfact>
</mgrwt>
</event>
<event>
 4    1  0.4834411E-002  0.4249855E+02  0.7818608E-02  0.1490591E+00
         -2   -1    0    0  501    0 -0.00000000000E+00  0.00000000000E+00  0.20807980760E+00  0.20809543203E+00  0.25500000000E-02 0.  1.
          2   -1    0    0    0  501  0.00000000000E+00 -0.00000000000E+00 -0.21699110412E+04  0.21699110412E+04  0.25500000000E-02 0.  1.
          2    1    1    2    0  502  0.18399239804E+02  0.78692291743E+01 -0.14497843208E+04  0.14499224233E+04  0.25500000000E-02 0.  1.
         -2    1    1    2  502    0 -0.18399239804E+02 -0.78692291743E+01 -0.71991864058E+03  0.72019671331E+03  0.25500000000E-02 0.  1.
<mgrwt>
<rscale>  0 0.42498547E+02</rscale>
<asrwt>0</asrwt>
<pdfrwt beam="2">  1        2 0.33381435E+00 0.42498547E+02</pdfrwt>
<pdfrwt beam="1">  1       -2 0.32015218E-04 0.42498547E+02</pdfrwt>
<totfact> 0.12696620E+06</totfact>
</mgrwt>
</event>
<event>
 4    1  0.4834411E-002  0.6689603E+02  0.7818608E-02  0.1370978E+00
          2   -1    0    0    0  501  0.00000000000E+00  0.00000000000E+00  0.42471455985E+02  0.42471456062E+02  0.25500000000E-02 0.  1.
         -2   -1    0    0  501    0 -0.00000000000E+00 -0.00000000000E+00 -0.26341684832E+02  0.26341684956E+02  0.25500000000E-02 0.  1.
          2    1    1    2    0  502 -0.32885951460E+02  0.54722495592E+01  0.52783061947E+01  0.33753397480E+02  0.25500000000E-02 0.  1.
         -2    1    1    2  502    0  0.32885951460E+02 -0.54722495592E+01  0.10851464958E+02  0.35059743538E+02  0.25500000000E-02 0.  1.
<mgrwt>
<rscale>  0 0.66896030E+02</rscale>
<asrwt>0</asrwt>
<pdfrwt beam="1">  1        2 0.65340701E-02 0.66896030E+02</pdfrwt>
<pdfrwt beam="2">  1       -2 0.40525670E-02 0.66896030E+02</pdfrwt>
<totfact> 0.23023489E+05</totfact>
</mgrwt>
</event>
<event>
 4    1  0.4834411E-002  0.4763819E+02  0.7818608E-02  0.1458513E+00
         -2   -1    0    0  501    0 -0.00000000000E+00  0.00000000000E+00  0.16752039657E+02  0.16752039851E+02  0.25500000000E-02 0.  1.
          2   -1    0    0    0  501  0.00000000000E+00 -0.00000000000E+00 -0.33867467943E+02  0.33867468039E+02  0.25500000000E-02 0.  1.
          2    1    1    2    0  502 -0.21467998138E+02  0.10257043608E+02 -0.97539005909E+01  0.25714207568E+02  0.25500000000E-02 0. -1.
         -2    1    1    2  502    0  0.21467998138E+02 -0.10257043608E+02 -0.73615276948E+01  0.24905300322E+02  0.25500000000E-02 0. -1.
<mgrwt>
<rscale>  0 0.47638185E+02</rscale>
<asrwt>0</asrwt>
<pdfrwt beam="2">  1        2 0.52103797E-02 0.47638185E+02</pdfrwt>
<pdfrwt beam="1">  1       -2 0.25772369E-02 0.47638185E+02</pdfrwt>
<totfact> 0.54287926E+05</totfact>
</mgrwt>
</event>
<event>
 4    1  0.4834411E-002  0.4347996E+02  0.7818608E-02  0.1484060E+00
         -2   -1    0    0  501    0 -0.00000000000E+00  0.00000000000E+00  0.41306658795E+00  0.41307445889E+00  0.25500000000E-02 0. -1.
          2   -1    0    0    0  501  0.00000000000E+00 -0.00000000000E+00 -0.11441794666E+04  0.11441794666E+04  0.25500000000E-02 0. -1.
          2    1    1    2    0  502  0.14808314229E+02  0.14940677227E+02 -0.71634937051E+03  0.71665816862E+03  0.25500000000E-02 0.  1.
         -2    1    1    2  502    0 -0.14808314229E+02 -0.14940677227E+02 -0.42741702945E+03  0.42793437240E+03  0.25500000000E-02 0.  1.
<mgrwt>
<rscale>  0 0.43479964E+02</rscale>
<asrwt>0</asrwt>
<pdfrwt beam="2">  1        2 0.17602507E+00 0.43479964E+02</pdfrwt>
<pdfrwt beam="1">  1       -2 0.63550227E-04 0.43479964E+02</pdfrwt>
<totfact> 0.16288429E+06</totfact>
</mgrwt>
</event>
<event>
 4    1  0.4834411E-002  0.4697874E+02  0.7818608E-02  0.1462354E+00
         -2   -1    0    0  501    0 -0.00000000000E+00  0.00000000000E+00  0.90416133309E+00  0.90416492896E+00  0.25500000000E-02 0.  1.
          2   -1    0    0    0  501  0.00000000000E+00 -0.00000000000E+00 -0.61023346630E+03  0.61023346631E+03  0.25500000000E-02 0.  1.
          2    1    1    2    0  502 -0.20028088596E+02  0.51288514239E+01 -0.15961719222E+03  0.16095054367E+03  0.25500000000E-02 0. -1.
         -2    1    1    2  502    0  0.20028088596E+02 -0.51288514239E+01 -0.44971211275E+03  0.45018708757E+03  0.25500000000E-02 0. -1.
<mgrwt>
<rscale>  0 0.46978744E+02</rscale>
<asrwt>0</asrwt>
<pdfrwt beam="2">  1        2 0.93881743E-01 0.46978744E+02</pdfrwt>
<pdfrwt beam="1">  1       -2 0.13910251E-03 0.46978744E+02</pdfrwt>
<totfact> 0.12403443E+06</totfact>
</mgrwt>
</event>
<event>
 4    1  0.4834411E-002  0.1102907E+03  0.7818608E-02  0.1260032E+00
         -2   -1    0    0  501    0 -0.00000000000E+00  0.00000000000E+00  0.17179671334E+03  0.17179671336E+03  0.25500000000E-02 0. -1.
          2   -1    0    0    0  501  0.00000000000E+00 -0.00000000000E+00 -0.17701223822E+02  0.17701224006E+02  0.25500000000E-02 0. -1.
          2    1    1    2    0  502 -0.27447495856E+02 -0.17898863351E+02  0.84014946773E+00  0.32778654574E+02  0.25500000000E-02 0. -1.
         -2    1    1    2  502    0  0.27447495856E+02  0.17898863351E+02  0.15325534005E+03  0.15671928279E+03  0.25500000000E-02 0. -1.
<mgrwt>
<rscale>  0 0.11029074E+03</rscale>
<asrwt>0</asrwt>
<pdfrwt beam="2">  1        2 0.27232653E-02 0.11029074E+03</pdfrwt>
<pdfrwt beam="1">  1       -2 0.26430263E-01 0.11029074E+03</pdfrwt>
<totfact> 0.40876438E+04</totfact>
</mgrwt>
</event>
<event>
 4    1  0.4834411E-002  0.5835430E+02  0.7818608E-02  0.1404871E+00
         -2   -1    0    0  501    0 -0.00000000000E+00  0.00000000000E+00  0.38670994040E+02  0.38670994124E+02  0.25500000000E-02 0.  1.
          2   -1    0    0    0  501  0.00000000000E+00 -0.00000000000E+00 -0.22014075060E+02  0.22014075208E+02  0.25500000000E-02 0.  1.
          2    1    1    2    0  502  0.22826868376E+02 -0.18140227575E+02  0.94544764999E+01  0.30651605321E+02  0.25500000000E-02 0.  1.
         -2    1    1    2  502    0 -0.22826868376E+02  0.18140227575E+02  0.72024424795E+01  0.30033464011E+02  0.25500000000E-02 0.  1.
<mgrwt>
<rscale>  0 0.58354303E+02</rscale>
<asrwt>0</asrwt>
<pdfrwt beam="2">  1        2 0.33867809E-02 0.58354303E+02</pdfrwt>
<pdfrwt beam="1">  1       -2 0.59493836E-02 0.58354303E+02</pdfrwt>
<totfact> 0.29470931E+05</totfact>
</mgrwt>
</event>
<event>
 4    1  0.4834411E-002  0.5033371E+02  0.7818608E-02  0.1443550E+00
         -2   -1    0    0  501    0 -0.00000000000E+00  0.00000000000E+00  0.44072762591E+02  0.44072762664E+02  0.25500000000E-02 0. -1.
          2   -1    0    0    0  501  0.00000000000E+00 -0.00000000000E+00 -0.14371020835E+02  0.14371021061E+02  0.25500000000E-02 0. -1.
          2    1    1    2    0  502  0.18772239075E+02 -0.15931386902E+02  0.87991263932E+01  0.26146332062E+02  0.25500000000E-02 0.  1.
         -2    1    1    2  502    0 -0.18772239075E+02  0.15931386902E+02  0.20902615362E+02  0.32297451664E+02  0.25500000000E-02 0.  1.
<mgrwt>
<rscale>  0 0.50333710E+02</rscale>
<asrwt>0</asrwt>
<pdfrwt beam="2">  1        2 0.22109263E-02 0.50333710E+02</pdfrwt>
<pdfrwt beam="1">  1       -2 0.67804249E-02 0.50333710E+02</pdfrwt>
<totfact> 0.41002894E+05</totfact>
</mgrwt>
</event>
<event>
 4    1  0.4834411E-002  0.4535506E+02  0.7818608E-02  0.1472137E+00
         -2   -1    0    0  501    0 -0.00000000000E+00  0.00000000000E+00  0.28053663533E+02  0.28053663649E+02  0.25500000000E-02 0. -1.
          2   -1    0    0    0  501  0.00000000000E+00 -0.00000000000E+00 -0.18331661020E+02  0.18331661198E+02  0.25500000000E-02 0. -1.
          2    1    1    2    0  502  0.20453310918E+02  0.35874749187E+01  0.14181883074E+02  0.25146246596E+02  0.25500000000E-02 0.  1.
         -2    1    1    2  502    0 -0.20453310918E+02 -0.35874749187E+01 -0.44598805618E+01  0.21239078251E+02  0.25500000000E-02 0.  1.
<mgrwt>
<rscale>  0 0.45355055E+02</rscale>
<asrwt>0</asrwt>
<pdfrwt beam="2">  1        2 0.28202556E-02 0.45355055E+02</pdfrwt>
<pdfrwt beam="1">  1       -2 0.43159483E-02 0.45355055E+02</pdfrwt>
<totfact> 0.56256404E+05</totfact>
</mgrwt>
</event>
<event>
 4    1  0.4834411E-002  0.4393817E+02  0.7818608E-02  0.1481081E+00
          2   -1    0    0    0  501  0.00000000000E+00  0.00000000000E+00  0.20849626355E+03  0.20849626357E+03  0.25500000000E-02 0. -1.
         -2   -1    0    0  501    0 -0.00000000000E+00 -0.00000000000E+00 -0.23148638066E+01  0.23148652111E+01  0.25500000000E-02 0. -1.
          2    1    1    2    0  502  0.49449060846E+01 -0.21210521179E+02  0.11691523793E+03  0.11892649483E+03  0.25500000000E-02 0. -1.
         -2    1    1    2  502    0 -0.49449060846E+01  0.21210521179E+02  0.89266161816E+02  0.91884633953E+02  0.25500000000E-02 0. -1.
<mgrwt>
<rscale>  0 0.43938166E+02</rscale>
<asrwt>0</asrwt>
<pdfrwt beam="1">  1        2 0.32076354E-01 0.43938166E+02</pdfrwt>
<pdfrwt beam="2">  1       -2 0.35613294E-03 0.43938166E+02</pdfrwt>
<totfact> 0.10287764E+06</totfact>
</mgrwt>
</event>
<event>
 4    1  0.4834411E-002  0.4599214E+02  0.7818608E-02  0.1468241E+00
          2   -1    0    0    0  501  0.00000000000E+00  0.00000000000E+00  0.12350805400E+04  0.12350805400E+04  0.25500000000E-02 0. -1.
         -2   -1    0    0  501    0 -0.00000000000E+00 -0.00000000000E+00 -0.42816208062E+00  0.42816967406E+00  0.25500000000E-02 0. -1.
          2    1    1    2    0  502 -0.13243095700E+02 -0.18597049363E+02  0.54331982856E+03  0.54379928829E+03  0.25500000000E-02 0. -1.
         -2    1    1    2  502    0  0.13243095700E+02  0.18597049363E+02  0.69133254938E+03  0.69170942141E+03  0.25500000000E-02 0. -1.
<mgrwt>
<rscale>  0 0.45992145E+02</rscale>
<asrwt>0</asrwt>
<pdfrwt beam="1">  1        2 0.19001616E+00 0.45992145E+02</pdfrwt>
<pdfrwt beam="2">  1       -2 0.65870366E-04 0.45992145E+02</pdfrwt>
<totfact> 0.14103372E+06</totfact>
</mgrwt>
</event>
<event>
 4    1  0.4834411E-002  0.7695750E+02  0.7818608E-02  0.1337914E+00
          2   -1    0    0    0  501  0.00000000000E+00  0.00000000000E+00  0.12421948346E+04  0.12421948346E+04  0.25500000000E-02 0. -1.
         -2   -1    0    0  501    0 -0.00000000000E+00 -0.00000000000E+00 -0.11919326999E+01  0.11919354276E+01  0.25500000000E-02 0. -1.
          2    1    1    2    0  502  0.32124871328E+02 -0.57997399028E+01  0.29137437039E+03  0.29319731933E+03  0.25500000000E-02 0. -1.
         -2    1    1    2  502    0 -0.32124871328E+02  0.57997399028E+01  0.94962853156E+03  0.95018945074E+03  0.25500000000E-02 0. -1.
<mgrwt>
<rscale>  0 0.76957504E+02</rscale>
<asrwt>0</asrwt>
<pdfrwt beam="1">  1        2 0.19110636E+00 0.76957504E+02</pdfrwt>
<pdfrwt beam="2">  1       -2 0.18337499E-03 0.76957504E+02</pdfrwt>
<totfact> 0.38545450E+05</totfact>
</mgrwt>
</event>
<event>
 4    1  0.4834411E-002  0.4982133E+02  0.7818608E-02  0.1446308E+00
         -2   -1    0    0  501    0 -0.00000000000E+00  0.00000000000E+00  0.21800241961E+01  0.21800256875E+01  0.25500000000E-02 0. -1.
          2   -1    0    0    0  501  0.00000000000E+00 -0.00000000000E+00 -0.28464871240E+03  0.28464871241E+03  0.25500000000E-02 0. -1.
          2    1    1    2    0  502  0.74148118085E+01 -0.21889259112E+02 -0.19475481897E+03  0.19612128547E+03  0.25500000000E-02 0. -1.
         -2    1    1    2  502    0 -0.74148118085E+01  0.21889259112E+02 -0.87713869233E+02  0.90707452621E+02  0.25500000000E-02 0. -1.
<mgrwt>
<rscale>  0 0.49821333E+02</rscale>
<asrwt>0</asrwt>
<pdfrwt beam="2">  1        2 0.43792080E-01 0.49821333E+02</pdfrwt>
<pdfrwt beam="1">  1       -2 0.33538868E-03 0.49821333E+02</pdfrwt>
<totfact> 0.83801844E+05</totfact>
</mgrwt>
</event>
<event>
 4    1  0.4834411E-002  0.4598189E+02  0.7818608E-02  0.1468303E+00
         -2   -1    0    0  501    0 -0.00000000000E+00  0.00000000000E+00  0.10431502811E+01  0.10431533979E+01  0.25500000000E-02 0. -1.
          2   -1    0    0    0  501  0.00000000000E+00 -0.00000000000E+00 -0.50671784510E+03  0.50671784510E+03  0.25500000000E-02 0. -1.
          2    1    1    2    0  502 -0.12467091968E+02  0.17648894781E+02 -0.33955663870E+03  0.34024347571E+03  0.25500000000E-02 0. -1.
         -2    1    1    2  502    0  0.12467091968E+02 -0.17648894781E+02 -0.16611805612E+03  0.16751752280E+03  0.25500000000E-02 0. -1.
<mgrwt>
<rscale>  0 0.45981895E+02</rscale>
<asrwt>0</asrwt>
<pdfrwt beam="2">  1        2 0.77956395E-01 0.45981895E+02</pdfrwt>
<pdfrwt beam="1">  1       -2 0.16048530E-03 0.45981895E+02</pdfrwt>
<totfact> 0.12395002E+06</totfact>
</mgrwt>
</event>
<event>
 4    1  0.4834411E-002  0.6115222E+02  0.7818608E-02  0.1393059E+00
         -2   -1    0    0  501    0 -0.00000000000E+00  0.00000000000E+00  0.71760566968E+02  0.71760567014E+02  0.25500000000E-02 0. -1.
          2   -1    0    0    0  501  0.00000000000E+00 -0.00000000000E+00 -0.13028024858E+02  0.13028025108E+02  0.25500000000E-02 0. -1.
          2    1    1    2    0  502  0.23635553727E+02  0.18607714442E+02  0.21770483386E+02  0.37132740137E+02  0.25500000000E-02 0.  1.
         -2    1    1    2  502    0 -0.23635553727E+02 -0.18607714442E+02  0.36962058724E+02  0.47655851984E+02  0.25500000000E-02 0.  1.
<mgrwt>
<rscale>  0 0.61152219E+02</rscale>
<asrwt>0</asrwt>
<pdfrwt beam="2">  1        2 0.20043115E-02 0.61152219E+02</pdfrwt>
<pdfrwt beam="1">  1       -2 0.11040087E-01 0.61152219E+02</pdfrwt>
<totfact> 0.23313184E+05</totfact>
</mgrwt>
</event>
<event>
 4    1  0.4834411E-002  0.4508030E+02  0.7818608E-02  0.1473841E+00
         -2   -1    0    0  501    0 -0.00000000000E+00  0.00000000000E+00  0.53036832744E+01  0.53036838874E+01  0.25500000000E-02 0. -1.
          2   -1    0    0    0  501  0.00000000000E+00 -0.00000000000E+00 -0.95793487505E+02  0.95793487539E+02  0.25500000000E-02 0. -1.
          2    1    1    2    0  502  0.91780084411E+01 -0.19262725274E+02 -0.28953988939E+02  0.35966955750E+02  0.25500000000E-02 0.  1.
         -2    1    1    2  502    0 -0.91780084411E+01  0.19262725274E+02 -0.61535815292E+02  0.65130215677E+02  0.25500000000E-02 0.  1.
<mgrwt>
<rscale>  0 0.45080299E+02</rscale>
<asrwt>0</asrwt>
<pdfrwt beam="2">  1        2 0.14737458E-01 0.45080299E+02</pdfrwt>
<pdfrwt beam="1">  1       -2 0.81595139E-03 0.45080299E+02</pdfrwt>
<totfact> 0.76852528E+05</totfact>
</mgrwt>
</event>
<event>
 4    1  0.4834411E-002  0.5047408E+02  0.7818608E-02  0.1442801E+00
         -2   -1    0    0  501    0 -0.00000000000E+00  0.00000000000E+00  0.34779111279E+00  0.34780046095E+00  0.25500000000E-02 0.  1.
          2   -1    0    0    0  501  0.00000000000E+00 -0.00000000000E+00 -0.18312702423E+04  0.18312702423E+04  0.25500000000E-02 0.  1.
          2    1    1    2    0  502 -0.10461413541E+02  0.22518850712E+02 -0.10792346818E+04  0.10795202815E+04  0.25500000000E-02 0. -1.
         -2    1    1    2  502    0  0.10461413541E+02 -0.22518850712E+02 -0.75168776940E+03  0.75209776125E+03  0.25500000000E-02 0. -1.
<mgrwt>
<rscale>  0 0.50474076E+02</rscale>
<asrwt>0</asrwt>
<pdfrwt beam="2">  1        2 0.28172616E+00 0.50474076E+02</pdfrwt>
<pdfrwt beam="1">  1       -2 0.53508511E-04 0.50474076E+02</pdfrwt>
<totfact> 0.96469999E+05</totfact>
</mgrwt>
</event>
<event>
 4    1  0.4834411E-002  0.5632207E+02  0.7818608E-02  0.1413948E+00
          2   -1    0    0    0  501  0.00000000000E+00  0.00000000000E+00  0.20381731595E+02  0.20381731755E+02  0.25500000000E-02 0. -1.
         -2   -1    0    0  501    0 -0.00000000000E+00 -0.00000000000E+00 -0.38909538645E+02  0.38909538728E+02  0.25500000000E-02 0. -1.
          2    1    1    2    0  502 -0.87527469981E+01 -0.26759016240E+02 -0.99198439318E+01  0.29850608709E+02  0.25500000000E-02 0.  1.
         -2    1    1    2  502    0  0.87527469981E+01  0.26759016240E+02 -0.86079631176E+01  0.29440661774E+02  0.25500000000E-02 0.  1.
<mgrwt>
<rscale>  0 0.56322066E+02</rscale>
<asrwt>0</asrwt>
<pdfrwt beam="1">  1        2 0.31356510E-02 0.56322066E+02</pdfrwt>
<pdfrwt beam="2">  1       -2 0.59860829E-02 0.56322066E+02</pdfrwt>
<totfact> 0.32030136E+05</totfact>
</mgrwt>
</event>
<event>
 4    1  0.4834411E-002  0.1416418E+03  0.7818608E-02  0.1211137E+00
         -2   -1    0    0  501    0 -0.00000000000E+00  0.00000000000E+00  0.10354668917E+02  0.10354669231E+02  0.25500000000E-02 0. -1.
          2   -1    0    0    0  501  0.00000000000E+00 -0.00000000000E+00 -0.48438052017E+03  0.48438052018E+03  0.25500000000E-02 0. -1.
          2    1    1    2    0  502 -0.63979545311E+02 -0.38309598061E+01 -0.34223687800E+03  0.34818693132E+03  0.25500000000E-02 0.  1.
         -2    1    1    2  502    0  0.63979545311E+02  0.38309598061E+01 -0.13178897325E+03  0.14654825809E+03  0.25500000000E-02 0.  1.
<mgrwt>
<rscale>  0 0.14164180E+03</rscale>
<asrwt>0</asrwt>
<pdfrwt beam="2">  1        2 0.74520062E-01 0.14164180E+03</pdfrwt>
<pdfrwt beam="1">  1       -2 0.15930264E-02 0.14164180E+03</pdfrwt>
<totfact> 0.64620499E+04</totfact>
</mgrwt>
</event>
<event>
 4    1  0.4834411E-002  0.6062117E+02  0.7818608E-02  0.1395243E+00
          2   -1    0    0    0  501  0.00000000000E+00  0.00000000000E+00  0.49876810507E+02  0.49876810572E+02  0.25500000000E-02 0. -1.
         -2   -1    0    0  501    0 -0.00000000000E+00 -0.00000000000E+00 -0.18420015634E+02  0.18420015810E+02  0.25500000000E-02 0. -1.
          2    1    1    2    0  502  0.10540658630E+02 -0.24507023976E+02 -0.48204428553E+00  0.26682055425E+02  0.25500000000E-02 0.  1.
         -2    1    1    2  502    0 -0.10540658630E+02  0.24507023976E+02  0.31938839159E+02  0.41614770957E+02  0.25500000000E-02 0.  1.
<mgrwt>
<rscale>  0 0.60621172E+02</rscale>
<asrwt>0</asrwt>
<pdfrwt beam="1">  1        2 0.76733555E-02 0.60621172E+02</pdfrwt>
<pdfrwt beam="2">  1       -2 0.28338486E-02 0.60621172E+02</pdfrwt>
<totfact> 0.31000003E+05</totfact>
</mgrwt>
</event>
<event>
 4    1  0.4834411E-002  0.6932118E+02  0.7818608E-02  0.1362417E+00
         -2   -1    0    0  501    0 -0.00000000000E+00  0.00000000000E+00  0.53013107018E+02  0.53013107080E+02  0.25500000000E-02 0. -1.
          2   -1    0    0    0  501  0.00000000000E+00 -0.00000000000E+00 -0.22661500666E+02  0.22661500809E+02  0.25500000000E-02 0. -1.
          2    1    1    2    0  502 -0.28079395023E+02  0.17501121806E+02  0.39040073150E+01  0.33316406904E+02  0.25500000000E-02 0.  1.
         -2    1    1    2  502    0  0.28079395023E+02 -0.17501121806E+02  0.26447599038E+02  0.42358200985E+02  0.25500000000E-02 0.  1.
<mgrwt>
<rscale>  0 0.69321182E+02</rscale>
<asrwt>0</asrwt>
<pdfrwt beam="2">  1        2 0.34863848E-02 0.69321182E+02</pdfrwt>
<pdfrwt beam="1">  1       -2 0.81558626E-02 0.69321182E+02</pdfrwt>
<totfact> 0.18333177E+05</totfact>
</mgrwt>
</event>
<event>
 4    1  0.4834411E-002  0.4703747E+02  0.7818608E-02  0.1462009E+00
          2   -1    0    0    0  501  0.00000000000E+00  0.00000000000E+00  0.90214558712E+03  0.90214558712E+03  0.25500000000E-02 0.  1.
         -2   -1    0    0  501    0 -0.00000000000E+00 -0.00000000000E+00 -0.61312550416E+00  0.61313080689E+00  0.25500000000E-02 0.  1.
          2    1    1    2    0  502 -0.22392306970E+02 -0.10523631265E+01  0.31423335485E+03  0.31503194154E+03  0.25500000000E-02 0.  1.
         -2    1    1    2  502    0  0.22392306970E+02  0.10523631265E+01  0.58729910676E+03  0.58772677639E+03  0.25500000000E-02 0.  1.
<mgrwt>
<rscale>  0 0.47037469E+02</rscale>
<asrwt>0</asrwt>
<pdfrwt beam="1">  1        2 0.13879139E+00 0.47037469E+02</pdfrwt>
<pdfrwt beam="2">  1       -2 0.94327570E-04 0.47037469E+02</pdfrwt>
<totfact> 0.13348655E+06</totfact>
</mgrwt>
</event>
<event>
 4    1  0.4834411E-002  0.4641889E+02  0.7818608E-02  0.1465673E+00
          2   -1    0    0    0  501  0.00000000000E+00  0.00000000000E+00  0.15771231636E+03  0.15771231638E+03  0.25500000000E-02 0.  1.
         -2   -1    0    0  501    0 -0.00000000000E+00 -0.00000000000E+00 -0.34155747354E+01  0.34155756873E+01  0.25500000000E-02 0.  1.
          2    1    1    2    0  502  0.18687758508E+02 -0.13419018000E+02  0.87777135189E+02  0.90742095141E+02  0.25500000000E-02 0.  1.
         -2    1    1    2  502    0 -0.18687758508E+02  0.13419018000E+02  0.66519606438E+02  0.70385796929E+02  0.25500000000E-02 0.  1.
<mgrwt>
<rscale>  0 0.46418888E+02</rscale>
<asrwt>0</asrwt>
<pdfrwt beam="1">  1        2 0.24263428E-01 0.46418888E+02</pdfrwt>
<pdfrwt beam="2">  1       -2 0.52547323E-03 0.46418888E+02</pdfrwt>
<totfact> 0.82130291E+05</totfact>
</mgrwt>
</event>
<event>
 4    1  0.4834411E-002  0.5666921E+02  0.7818608E-02  0.1412366E+00
         -2   -1    0    0  501    0 -0.00000000000E+00  0.00000000000E+00  0.73796622445E+01  0.73796626851E+01  0.25500000000E-02 0.  1.
          2   -1    0    0    0  501  0.00000000000E+00 -0.00000000000E+00 -0.10879220927E+03  0.10879220930E+03  0.25500000000E-02 0.  1.
          2    1    1    2    0  502 -0.10174501293E+02 -0.24022594395E+02 -0.28040628352E+02  0.38299900299E+02  0.25500000000E-02 0.  1.
         -2    1    1    2  502    0  0.10174501293E+02  0.24022594395E+02 -0.73371918678E+02  0.77871971691E+02  0.25500000000E-02 0.  1.
<mgrwt>
<rscale>  0 0.56669208E+02</rscale>
<asrwt>0</asrwt>
<pdfrwt beam="2">  1        2 0.16737262E-01 0.56669208E+02</pdfrwt>
<pdfrwt beam="1">  1       -2 0.11353328E-02 0.56669208E+02</pdfrwt>
<totfact> 0.44490450E+05</totfact>
</mgrwt>
</event>
<event>
 4    1  0.4834411E-002  0.5350167E+02  0.7818608E-02  0.1427320E+00
         -2   -1    0    0  501    0 -0.00000000000E+00  0.00000000000E+00  0.15932049517E+01  0.15932069924E+01  0.25500000000E-02 0. -1.
          2   -1    0    0    0  501  0.00000000000E+00 -0.00000000000E+00 -0.44916180714E+03  0.44916180714E+03  0.25500000000E-02 0. -1.
          2    1    1    2    0  502 -0.19746596096E+02  0.97929970017E+01 -0.96074000070E+02  0.98569997177E+02  0.25500000000E-02 0. -1.
         -2    1    1    2  502    0  0.19746596096E+02 -0.97929970017E+01 -0.35149460211E+03  0.35218501696E+03  0.25500000000E-02 0. -1.
<mgrwt>
<rscale>  0 0.53501674E+02</rscale>
<asrwt>0</asrwt>
<pdfrwt beam="2">  1        2 0.69101716E-01 0.53501674E+02</pdfrwt>
<pdfrwt beam="1">  1       -2 0.24510897E-03 0.53501674E+02</pdfrwt>
<totfact> 0.82034890E+05</totfact>
</mgrwt>
</event>
<event>
 4    1  0.4834411E-002  0.8154408E+02  0.7818608E-02  0.1324726E+00
         -2   -1    0    0  501    0 -0.00000000000E+00  0.00000000000E+00  0.92110695213E+02  0.92110695249E+02  0.25500000000E-02 0.  1.
          2   -1    0    0    0  501  0.00000000000E+00 -0.00000000000E+00 -0.18047408672E+02  0.18047408852E+02  0.25500000000E-02 0.  1.
          2    1    1    2    0  502  0.72618637276E+01  0.27059759913E+02  0.77046507932E+02  0.81982496073E+02  0.25500000000E-02 0.  1.
         -2    1    1    2  502    0 -0.72618637276E+01 -0.27059759913E+02 -0.29832213906E+01  0.28175608028E+02  0.25500000000E-02 0.  1.
<mgrwt>
<rscale>  0 0.81544083E+02</rscale>
<asrwt>0</asrwt>
<pdfrwt beam="2">  1        2 0.27765244E-02 0.81544083E+02</pdfrwt>
<pdfrwt beam="1">  1       -2 0.14170876E-01 0.81544083E+02</pdfrwt>
<totfact> 0.10782428E+05</totfact>
</mgrwt>
</event>
<event>
 4    1  0.4834411E-002  0.7955526E+02  0.7818608E-02  0.1330318E+00
          2   -1    0    0    0  501  0.00000000000E+00  0.00000000000E+00  0.27146224398E+04  0.27146224398E+04  0.25500000000E-02 0. -1.
         -2   -1    0    0  501    0 -0.00000000000E+00 -0.00000000000E+00 -0.58286280175E+00  0.58286837980E+00  0.25500000000E-02 0. -1.
          2    1    1    2    0  502 -0.12446191716E+02 -0.34037020447E+02  0.79742263975E+03  0.79824575968E+03  0.25500000000E-02 0. -1.
         -2    1    1    2  502    0  0.12446191716E+02  0.34037020447E+02  0.19166169372E+04  0.19169595485E+04  0.25500000000E-02 0. -1.
<mgrwt>
<rscale>  0 0.79555264E+02</rscale>
<asrwt>0</asrwt>
<pdfrwt beam="1">  1        2 0.41764334E+00 0.79555264E+02</pdfrwt>
<pdfrwt beam="2">  1       -2 0.89669672E-04 0.79555264E+02</pdfrwt>
<totfact> 0.18342269E+05</totfact>
</mgrwt>
</event>
<event>
 4    1  0.4834411E-002  0.9157468E+02  0.7818608E-02  0.1299083E+00
          2   -1    0    0    0  501  0.00000000000E+00  0.00000000000E+00  0.23119014332E+04  0.23119014332E+04  0.25500000000E-02 0. -1.
         -2   -1    0    0  501    0 -0.00000000000E+00 -0.00000000000E+00 -0.90681909000E+00  0.90682267532E+00  0.25500000000E-02 0. -1.
          2    1    1    2    0  502 -0.32130804436E+02  0.30377920874E+02  0.85530810188E+03  0.85645032303E+03  0.25500000000E-02 0.  1.
         -2    1    1    2  502    0  0.32130804436E+02 -0.30377920874E+02  0.14556865122E+04  0.14563579328E+04  0.25500000000E-02 0.  1.
<mgrwt>
<rscale>  0 0.91574680E+02</rscale>
<asrwt>0</asrwt>
<pdfrwt beam="1">  1        2 0.35567588E+00 0.91574680E+02</pdfrwt>
<pdfrwt beam="2">  1       -2 0.13951140E-03 0.91574680E+02</pdfrwt>
<totfact> 0.16506925E+05</totfact>
</mgrwt>
</event>
<event>
 4    1  0.4834411E-002  0.4477272E+02  0.7818608E-02  0.1475765E+00
          2   -1    0    0    0  501  0.00000000000E+00  0.00000000000E+00  0.50024507206E+01  0.50024513706E+01  0.25500000000E-02 0.  1.
         -2   -1    0    0  501    0 -0.00000000000E+00 -0.00000000000E+00 -0.10018072932E+03  0.10018072935E+03  0.25500000000E-02 0.  1.
          2    1    1    2    0  502  0.20302541413E+02 -0.90692425804E+01 -0.53672268806E+02  0.58096099646E+02  0.25500000000E-02 0. -1.
         -2    1    1    2  502    0 -0.20302541413E+02  0.90692425804E+01 -0.41506009791E+02  0.47087081075E+02  0.25500000000E-02 0. -1.
<mgrwt>
<rscale>  0 0.44772724E+02</rscale>
<asrwt>0</asrwt>
<pdfrwt beam="1">  1        2 0.76960793E-03 0.44772724E+02</pdfrwt>
<pdfrwt beam="2">  1       -2 0.15412418E-01 0.44772724E+02</pdfrwt>
<totfact> 0.46137027E+05</totfact>
</mgrwt>
</event>
<event>
 4    1  0.4834411E-002  0.5056100E+02  0.7818608E-02  0.1442339E+00
         -2   -1    0    0  501    0 -0.00000000000E+00  0.00000000000E+00  0.47668191957E+02  0.47668192025E+02  0.25500000000E-02 0.  1.
          2   -1    0    0    0  501  0.00000000000E+00 -0.00000000000E+00 -0.13407339745E+02  0.13407339988E+02  0.25500000000E-02 0.  1.
          2    1    1    2    0  502  0.57010579386E+01 -0.24083966440E+02  0.23356288909E+02  0.34030218030E+02  0.25500000000E-02 0. -1.
         -2    1    1    2  502    0 -0.57010579386E+01  0.24083966440E+02  0.10904563303E+02  0.27045313983E+02  0.25500000000E-02 0. -1.
<mgrwt>
<rscale>  0 0.50560999E+02</rscale>
<asrwt>0</asrwt>
<pdfrwt beam="2">  1        2 0.20626677E-02 0.50560999E+02</pdfrwt>
<pdfrwt beam="1">  1       -2 0.73335679E-02 0.50560999E+02</pdfrwt>
<totfact> 0.40025221E+05</totfact>
</mgrwt>
</event>
<event>
 4    1  0.4834411E-002  0.1211277E+03  0.7818608E-02  0.1241248E+00
         -2   -1    0    0  501    0 -0.00000000000E+00  0.00000000000E+00  0.70784201032E+01  0.70784205625E+01  0.25500000000E-02 0.  1.
          2   -1    0    0    0  501  0.00000000000E+00 -0.00000000000E+00 -0.51819166168E+03  0.51819166168E+03  0.25500000000E-02 0.  1.
          2    1    1    2    0  502 -0.44086714088E+02 -0.29525666377E+02 -0.12893566235E+03  0.13942671324E+03  0.25500000000E-02 0.  1.
         -2    1    1    2  502    0  0.44086714088E+02  0.29525666377E+02 -0.38217757923E+03  0.38584336900E+03  0.25500000000E-02 0.  1.
<mgrwt>
<rscale>  0 0.12112767E+03</rscale>
<asrwt>0</asrwt>
<pdfrwt beam="2">  1        2 0.79721764E-01 0.12112767E+03</pdfrwt>
<pdfrwt beam="1">  1       -2 0.10889882E-02 0.12112767E+03</pdfrwt>
<totfact> 0.10166619E+05</totfact>
</mgrwt>
</event>
<event>
 4    1  0.4834411E-002  0.1131682E+03  0.7818608E-02  0.1254813E+00
         -2   -1    0    0  501    0 -0.00000000000E+00  0.00000000000E+00  0.33969686692E+02  0.33969686788E+02  0.25500000000E-02 0.  1.
          2   -1    0    0    0  501  0.00000000000E+00 -0.00000000000E+00 -0.94253496614E+02  0.94253496648E+02  0.25500000000E-02 0.  1.
          2    1    1    2    0  502  0.14635893232E+01  0.43225254376E+02  0.11197405163E+02  0.44676018158E+02  0.25500000000E-02 0. -1.
         -2    1    1    2  502    0 -0.14635893232E+01 -0.43225254376E+02 -0.71481215085E+02  0.83547165278E+02  0.25500000000E-02 0. -1.
<mgrwt>
<rscale>  0 0.11316822E+03</rscale>
<asrwt>0</asrwt>
<pdfrwt beam="2">  1        2 0.14500538E-01 0.11316822E+03</pdfrwt>
<pdfrwt beam="1">  1       -2 0.52261057E-02 0.11316822E+03</pdfrwt>
<totfact> 0.65681238E+04</totfact>
</mgrwt>
</event>
<event>
 4    1  0.4834411E-002  0.6921663E+02  0.7818608E-02  0.1362777E+00
         -2   -1    0    0  501    0 -0.00000000000E+00  0.00000000000E+00  0.10933938257E+03  0.10933938260E+03  0.25500000000E-02 0.  1.
          2   -1    0    0    0  501  0.00000000000E+00 -0.00000000000E+00 -0.10954291754E+02  0.10954292050E+02  0.25500000000E-02 0.  1.
          2    1    1    2    0  502 -0.25888625310E+02  0.82540132281E+01  0.11942985899E+02  0.29681384292E+02  0.25500000000E-02 0. -1.
         -2    1    1    2  502    0  0.25888625310E+02 -0.82540132281E+01  0.86442104920E+02  0.90612290360E+02  0.25500000000E-02 0. -1.
<mgrwt>
<rscale>  0 0.69216631E+02</rscale>
<asrwt>0</asrwt>
<pdfrwt beam="2">  1        2 0.16852757E-02 0.69216631E+02</pdfrwt>
<pdfrwt beam="1">  1       -2 0.16821443E-01 0.69216631E+02</pdfrwt>
<totfact> 0.15451927E+05</totfact>
</mgrwt>
</event>
<event>
 4    1  0.4834411E-002  0.4082911E+02  0.7818608E-02  0.1502197E+00
          2   -1    0    0    0  501  0.00000000000E+00  0.00000000000E+00  0.33314820009E+03  0.33314820010E+03  0.25500000000E-02 0.  1.
         -2   -1    0    0  501    0 -0.00000000000E+00 -0.00000000000E+00 -0.12509556269E+01  0.12509582260E+01  0.25500000000E-02 0.  1.
          2    1    1    2    0  502 -0.94149976639E+01 -0.18113448371E+02  0.16694676324E+03  0.16819025226E+03  0.25500000000E-02 0.  1.
         -2    1    1    2  502    0  0.94149976639E+01  0.18113448371E+02  0.16495048122E+03  0.16620890606E+03  0.25500000000E-02 0.  1.
<mgrwt>
<rscale>  0 0.40829110E+02</rscale>
<asrwt>0</asrwt>
<pdfrwt beam="1">  1        2 0.51253654E-01 0.40829110E+02</pdfrwt>
<pdfrwt beam="2">  1       -2 0.19245459E-03 0.40829110E+02</pdfrwt>
<totfact> 0.14427497E+06</totfact>
</mgrwt>
</event>
<event>
 4    1  0.4834411E-002  0.9885191E+02  0.7818608E-02  0.1282729E+00
         -2   -1    0    0  501    0 -0.00000000000E+00  0.00000000000E+00  0.19106323791E+01  0.19106340808E+01  0.25500000000E-02 0.  1.
          2   -1    0    0    0  501  0.00000000000E+00 -0.00000000000E+00 -0.12785945474E+04  0.12785945474E+04  0.25500000000E-02 0.  1.
          2    1    1    2    0  502 -0.58508482738E+01  0.37858087996E+02 -0.23376556414E+03  0.23688352884E+03  0.25500000000E-02 0. -1.
         -2    1    1    2  502    0  0.58508482738E+01 -0.37858087996E+02 -0.10429183509E+04  0.10436216527E+04  0.25500000000E-02 0. -1.
<mgrwt>
<rscale>  0 0.98851914E+02</rscale>
<asrwt>0</asrwt>
<pdfrwt beam="2">  1        2 0.19670617E+00 0.98851914E+02</pdfrwt>
<pdfrwt beam="1">  1       -2 0.29394460E-03 0.98851914E+02</pdfrwt>
<totfact> 0.19904345E+05</totfact>
</mgrwt>
</event>
<event>
 4    1  0.4834411E-002  0.4762598E+02  0.7818608E-02  0.1458584E+00
          2   -1    0    0    0  501  0.00000000000E+00  0.00000000000E+00  0.16646823950E+04  0.16646823950E+04  0.25500000000E-02 0.  1.
         -2   -1    0    0  501    0 -0.00000000000E+00 -0.00000000000E+00 -0.34063586882E+00  0.34064541334E+00  0.25500000000E-02 0.  1.
          2    1    1    2    0  502  0.91576209080E+01 -0.20457823369E+02  0.11133227066E+04  0.11135483077E+04  0.25500000000E-02 0. -1.
         -2    1    1    2  502    0 -0.91576209080E+01  0.20457823369E+02  0.55101905255E+03  0.55147473272E+03  0.25500000000E-02 0. -1.
<mgrwt>
<rscale>  0 0.47625980E+02</rscale>
<asrwt>0</asrwt>
<pdfrwt beam="1">  1        2 0.25610707E+00 0.47625980E+02</pdfrwt>
<pdfrwt beam="2">  1       -2 0.52405825E-04 0.47625980E+02</pdfrwt>
<totfact> 0.11809163E+06</totfact>
</mgrwt>
</event>
<event>
 4    1  0.4834411E-002  0.6080592E+02  0.7818608E-02  0.1394480E+00
         -2   -1    0    0  501    0 -0.00000000000E+00  0.00000000000E+00  0.22542116511E+01  0.22542130934E+01  0.25500000000E-02 0. -1.
          2   -1    0    0    0  501  0.00000000000E+00 -0.00000000000E+00 -0.41005013319E+03  0.41005013320E+03  0.25500000000E-02 0. -1.
          2    1    1    2    0  502  0.16837902517E+02  0.25002983434E+02 -0.23074453024E+03  0.23270518341E+03  0.25500000000E-02 0.  1.
         -2    1    1    2  502    0 -0.16837902517E+02 -0.25002983434E+02 -0.17705139130E+03  0.17959916289E+03  0.25500000000E-02 0.  1.
<mgrwt>
<rscale>  0 0.60805924E+02</rscale>
<asrwt>0</asrwt>
<pdfrwt beam="2">  1        2 0.63084577E-01 0.60805924E+02</pdfrwt>
<pdfrwt beam="1">  1       -2 0.34680223E-03 0.60805924E+02</pdfrwt>
<totfact> 0.57652465E+05</totfact>
</mgrwt>
</event>
<event>
 4    1  0.4834411E-002  0.7129111E+02  0.7818608E-02  0.1355757E+00
          2   -1    0    0    0  501  0.00000000000E+00  0.00000000000E+00  0.48787204851E+03  0.48787204852E+03  0.25500000000E-02 0. -1.
         -2   -1    0    0  501    0 -0.00000000000E+00 -0.00000000000E+00 -0.26043822513E+01  0.26043834997E+01  0.25500000000E-02 0. -1.
          2    1    1    2    0  502  0.26897016820E+02 -0.14745304652E+02  0.36756286262E+03  0.36884052314E+03  0.25500000000E-02 0.  1.
         -2    1    1    2  502    0 -0.26897016820E+02  0.14745304652E+02  0.11770480364E+03  0.12163590888E+03  0.25500000000E-02 0.  1.
<mgrwt>
<rscale>  0 0.71291111E+02</rscale>
<asrwt>0</asrwt>
<pdfrwt beam="1">  1        2 0.75057231E-01 0.71291111E+02</pdfrwt>
<pdfrwt beam="2">  1       -2 0.40067433E-03 0.71291111E+02</pdfrwt>
<totfact> 0.40658374E+05</totfact>
</mgrwt>
</event>
<event>
 4    1  0.4834411E-002  0.8807760E+02  0.7818608E-02  0.1307575E+00
         -2   -1    0    0  501    0 -0.00000000000E+00  0.00000000000E+00  0.28688860574E+02  0.28688860687E+02  0.25500000000E-02 0. -1.
          2   -1    0    0    0  501  0.00000000000E+00 -0.00000000000E+00 -0.67601706805E+02  0.67601706853E+02  0.25500000000E-02 0. -1.
          2    1    1    2    0  502  0.31315784980E+02  0.26889579436E+02 -0.36240098478E+02  0.54927885589E+02  0.25500000000E-02 0.  1.
         -2    1    1    2  502    0 -0.31315784980E+02 -0.26889579436E+02 -0.26727477539E+01  0.41362681951E+02  0.25500000000E-02 0.  1.
<mgrwt>
<rscale>  0 0.88077601E+02</rscale>
<asrwt>0</asrwt>
<pdfrwt beam="2">  1        2 0.10400263E-01 0.88077601E+02</pdfrwt>
<pdfrwt beam="1">  1       -2 0.44136709E-02 0.88077601E+02</pdfrwt>
<totfact> 0.12066703E+05</totfact>
</mgrwt>
</event>
<event>
 4    1  0.4834411E-002  0.4364570E+02  0.7818608E-02  0.1482978E+00
          2   -1    0    0    0  501  0.00000000000E+00  0.00000000000E+00  0.22922863608E+01  0.22922877791E+01  0.25500000000E-02 0.  1.
         -2   -1    0    0  501    0 -0.00000000000E+00 -0.00000000000E+00 -0.20775612693E+03  0.20775612695E+03  0.25500000000E-02 0.  1.
          2    1    1    2    0  502  0.97066910293E+01  0.17798641384E+02 -0.63864503316E+02  0.67005121268E+02  0.25500000000E-02 0.  1.
         -2    1    1    2  502    0 -0.97066910293E+01 -0.17798641384E+02 -0.14159933725E+03  0.14304329346E+03  0.25500000000E-02 0.  1.
<mgrwt>
<rscale>  0 0.43645696E+02</rscale>
<asrwt>0</asrwt>
<pdfrwt beam="1">  1        2 0.35265972E-03 0.43645696E+02</pdfrwt>
<pdfrwt beam="2">  1       -2 0.31962466E-01 0.43645696E+02</pdfrwt>
<totfact> 0.38669133E+05</totfact>
</mgrwt>
</event>
<event>
 4    1  0.4834411E-002  0.4418467E+02  0.7818608E-02  0.1479497E+00
         -2   -1    0    0  501    0 -0.00000000000E+00  0.00000000000E+00  0.24812705983E+00  0.24814016265E+00  0.25500000000E-02 0.  1.
          2   -1    0    0    0  501  0.00000000000E+00 -0.00000000000E+00 -0.19669695649E+04  0.19669695649E+04  0.25500000000E-02 0.  1.
          2    1    1    2    0  502  0.21980872725E+02  0.21930920267E+01 -0.96908292163E+03  0.96933465709E+03  0.25500000000E-02 0.  1.
         -2    1    1    2  502    0 -0.21980872725E+02 -0.21930920267E+01 -0.99763851616E+03  0.99788304793E+03  0.25500000000E-02 0.  1.
<mgrwt>
<rscale>  0 0.44184670E+02</rscale>
<asrwt>0</asrwt>
<pdfrwt beam="2">  1        2 0.30259822E+00 0.44184670E+02</pdfrwt>
<pdfrwt beam="1">  1       -2 0.38175977E-04 0.44184670E+02</pdfrwt>
<totfact> 0.12690942E+06</totfact>
</mgrwt>
</event>
<event>
 4    1  0.4834411E-002  0.6032889E+02  0.7818608E-02  0.1396457E+00
         -2   -1    0    0  501    0 -0.00000000000E+00  0.00000000000E+00  0.56719173989E+03  0.56719173990E+03  0.25500000000E-02 0.  1.
          2   -1    0    0    0  501  0.00000000000E+00 -0.00000000000E+00 -0.16042073649E+01  0.16042093916E+01  0.25500000000E-02 0.  1.
          2    1    1    2    0  502 -0.65773786487E+01  0.29385811439E+02  0.29940974333E+03  0.30092022569E+03  0.25500000000E-02 0. -1.
         -2    1    1    2  502    0  0.65773786487E+01 -0.29385811439E+02  0.26617778920E+03  0.26787572360E+03  0.25500000000E-02 0. -1.
<mgrwt>
<rscale>  0 0.60328890E+02</rscale>
<asrwt>0</asrwt>
<pdfrwt beam="2">  1        2 0.24680085E-03 0.60328890E+02</pdfrwt>
<pdfrwt beam="1">  1       -2 0.87260422E-01 0.60328890E+02</pdfrwt>
<totfact> 0.94017589E+04</totfact>
</mgrwt>
</event>
<event>
 4    1  0.4834411E-002  0.1011545E+03  0.7818608E-02  0.1277887E+00
         -2   -1    0    0  501    0 -0.00000000000E+00  0.00000000000E+00  0.30465915860E+01  0.30465926531E+01  0.25500000000E-02 0.  1.
          2   -1    0    0    0  501  0.00000000000E+00 -0.00000000000E+00 -0.83964548832E+03  0.83964548832E+03  0.25500000000E-02 0.  1.
          2    1    1    2    0  502 -0.16436446032E+02 -0.26138123241E+02 -0.75201817829E+03  0.75265177787E+03  0.25500000000E-02 0.  1.
         -2    1    1    2  502    0  0.16436446032E+02  0.26138123241E+02 -0.84580718442E+02  0.90040303105E+02  0.25500000000E-02 0.  1.
<mgrwt>
<rscale>  0 0.10115448E+03</rscale>
<asrwt>0</asrwt>
<pdfrwt beam="2">  1        2 0.12917604E+00 0.10115448E+03</pdfrwt>
<pdfrwt beam="1">  1       -2 0.46870715E-03 0.10115448E+03</pdfrwt>
<totfact> 0.18660098E+05</totfact>
</mgrwt>
</event>
<event>
 4    1  0.4834411E-002  0.5483083E+02  0.7818608E-02  0.1420901E+00
         -2   -1    0    0  501    0 -0.00000000000E+00  0.00000000000E+00  0.20447025764E+01  0.20447041665E+01  0.25500000000E-02 0.  1.
          2   -1    0    0    0  501  0.00000000000E+00 -0.00000000000E+00 -0.36758626693E+03  0.36758626693E+03  0.25500000000E-02 0.  1.
          2    1    1    2    0  502 -0.16950063980E+02  0.20868840989E+02 -0.14659840202E+03  0.14904329798E+03  0.25500000000E-02 0. -1.
         -2    1    1    2  502    0  0.16950063980E+02 -0.20868840989E+02 -0.21894316233E+03  0.22058767312E+03  0.25500000000E-02 0. -1.
<mgrwt>
<rscale>  0 0.54830826E+02</rscale>
<asrwt>0</asrwt>
<pdfrwt beam="2">  1        2 0.56551681E-01 0.54830826E+02</pdfrwt>
<pdfrwt beam="1">  1       -2 0.31457004E-03 0.54830826E+02</pdfrwt>
<totfact> 0.72089533E+05</totfact>
</mgrwt>
</event>
<event>
 4    1  0.4834411E-002  0.4341999E+02  0.7818608E-02  0.1484453E+00
          2   -1    0    0    0  501  0.00000000000E+00  0.00000000000E+00  0.38195612717E+03  0.38195612717E+03  0.25500000000E-02 0. -1.
         -2   -1    0    0  501    0 -0.00000000000E+00 -0.00000000000E+00 -0.12339727477E+01  0.12339753824E+01  0.25500000000E-02 0. -1.
          2    1    1    2    0  502  0.86700733339E+01  0.19650059882E+02  0.16241301140E+03  0.16382698588E+03  0.25500000000E-02 0.  1.
         -2    1    1    2  502    0 -0.86700733339E+01 -0.19650059882E+02  0.21830914302E+03  0.21936311668E+03  0.25500000000E-02 0.  1.
<mgrwt>
<rscale>  0 0.43419993E+02</rscale>
<asrwt>0</asrwt>
<pdfrwt beam="1">  1        2 0.58762543E-01 0.43419993E+02</pdfrwt>
<pdfrwt beam="2">  1       -2 0.18984196E-03 0.43419993E+02</pdfrwt>
<totfact> 0.13012590E+06</totfact>
</mgrwt>
</event>
<event>
 4    1  0.4834411E-002  0.6666865E+02  0.7818608E-02  0.1371802E+00
         -2   -1    0    0  501    0 -0.00000000000E+00  0.00000000000E+00  0.40919652415E+02  0.40919652495E+02  0.25500000000E-02 0. -1.
          2   -1    0    0    0  501  0.00000000000E+00 -0.00000000000E+00 -0.27155101462E+02  0.27155101581E+02  0.25500000000E-02 0. -1.
          2    1    1    2    0  502  0.18700891814E+02  0.14226054752E+02  0.31025695331E+02  0.38919118255E+02  0.25500000000E-02 0. -1.
         -2    1    1    2  502    0 -0.18700891814E+02 -0.14226054752E+02 -0.17261144377E+02  0.29155635822E+02  0.25500000000E-02 0. -1.
<mgrwt>
<rscale>  0 0.66668653E+02</rscale>
<asrwt>0</asrwt>
<pdfrwt beam="2">  1        2 0.41777079E-02 0.66668653E+02</pdfrwt>
<pdfrwt beam="1">  1       -2 0.62953312E-02 0.66668653E+02</pdfrwt>
<totfact> 0.21233273E+05</totfact>
</mgrwt>
</event>
<event>
 4    1  0.4834411E-002  0.6765749E+02  0.7818608E-02  0.1368245E+00
          2   -1    0    0    0  501  0.00000000000E+00  0.00000000000E+00  0.25603649551E+03  0.25603649552E+03  0.25500000000E-02 0.  1.
         -2   -1    0    0  501    0 -0.00000000000E+00 -0.00000000000E+00 -0.44696119092E+01  0.44696126367E+01  0.25500000000E-02 0.  1.
          2    1    1    2    0  502 -0.13774784005E+02  0.19882959083E+02  0.21684335399E+03  0.21818826025E+03  0.25500000000E-02 0.  1.
         -2    1    1    2  502    0  0.13774784005E+02 -0.19882959083E+02  0.34723529613E+02  0.42317847908E+02  0.25500000000E-02 0.  1.
<mgrwt>
<rscale>  0 0.67657486E+02</rscale>
<asrwt>0</asrwt>
<pdfrwt beam="1">  1        2 0.39390239E-01 0.67657486E+02</pdfrwt>
<pdfrwt beam="2">  1       -2 0.68763251E-03 0.67657486E+02</pdfrwt>
<totfact> 0.37123638E+05</totfact>
</mgrwt>
</event>
<event>
 4    1  0.4834411E-002  0.1198760E+03  0.7818608E-02  0.1243302E+00
          2   -1    0    0    0  501  0.00000000000E+00  0.00000000000E+00  0.18697941132E+03  0.18697941133E+03  0.25500000000E-02 0.  1.
         -2   -1    0    0  501    0 -0.00000000000E+00 -0.00000000000E+00 -0.19213693151E+02  0.19213693320E+02  0.25500000000E-02 0.  1.
          2    1    1    2    0  502 -0.53159287124E+02  0.27530805242E+02  0.78806516075E+02  0.98966267118E+02  0.25500000000E-02 0.  1.
         -2    1    1    2  502    0  0.53159287124E+02 -0.27530805242E+02  0.88959202090E+02  0.10722683754E+03  0.25500000000E-02 0.  1.
<mgrwt>
<rscale>  0 0.11987602E+03</rscale>
<asrwt>0</asrwt>
<pdfrwt beam="1">  1        2 0.28766062E-01 0.11987602E+03</pdfrwt>
<pdfrwt beam="2">  1       -2 0.29559529E-02 0.11987602E+03</pdfrwt>
<totfact> 0.71217792E+04</totfact>
</mgrwt>
</event>
<event>
 4    1  0.4834411E-002  0.8177331E+02  0.7818608E-02  0.1324093E+00
          2   -1    0    0    0  501  0.00000000000E+00  0.00000000000E+00  0.52769999018E+03  0.52769999018E+03  0.25500000000E-02 0.  1.
         -2   -1    0    0  501    0 -0.00000000000E+00 -0.00000000000E+00 -0.31679334513E+01  0.31679344776E+01  0.25500000000E-02 0.  1.
          2    1    1    2    0  502  0.13348624724E+02 -0.27261099357E+02  0.44009859073E+03  0.44114410672E+03  0.25500000000E-02 0. -1.
         -2    1    1    2  502    0 -0.13348624724E+02  0.27261099357E+02  0.84433465991E+02  0.89723817942E+02  0.25500000000E-02 0. -1.
<mgrwt>
<rscale>  0 0.81773314E+02</rscale>
<asrwt>0</asrwt>
<pdfrwt beam="1">  1        2 0.81184685E-01 0.81773314E+02</pdfrwt>
<pdfrwt beam="2">  1       -2 0.48737403E-03 0.81773314E+02</pdfrwt>
<totfact> 0.29189635E+05</totfact>
</mgrwt>
</event>
<event>
 4    1  0.4834411E-002  0.6075432E+02  0.7818608E-02  0.1394693E+00
         -2   -1    0    0  501    0 -0.00000000000E+00  0.00000000000E+00  0.22325820347E+01  0.22325834910E+01  0.25500000000E-02 0.  1.
          2   -1    0    0    0  501  0.00000000000E+00 -0.00000000000E+00 -0.41332036002E+03  0.41332036002E+03  0.25500000000E-02 0.  1.
          2    1    1    2    0  502 -0.24596663164E+02  0.17423747088E+02 -0.23130868515E+03  0.23326442214E+03  0.25500000000E-02 0.  1.
         -2    1    1    2  502    0  0.24596663164E+02 -0.17423747088E+02 -0.17977909283E+03  0.18228852138E+03  0.25500000000E-02 0.  1.
<mgrwt>
<rscale>  0 0.60754322E+02</rscale>
<asrwt>0</asrwt>
<pdfrwt beam="2">  1        2 0.63587687E-01 0.60754322E+02</pdfrwt>
<pdfrwt beam="1">  1       -2 0.34347460E-03 0.60754322E+02</pdfrwt>
<totfact> 0.57933466E+05</totfact>
</mgrwt>
</event>
<event>
 4    1  0.4834411E-002  0.7903757E+02  0.7818608E-02  0.1331805E+00
         -2   -1    0    0  501    0 -0.00000000000E+00  0.00000000000E+00  0.30331303976E+03  0.30331303977E+03  0.25500000000E-02 0.  1.
          2   -1    0    0    0  501  0.00000000000E+00 -0.00000000000E+00 -0.51489190462E+01  0.51489196777E+01  0.25500000000E-02 0.  1.
          2    1    1    2    0  502 -0.37941607514E+02 -0.76191022560E+01  0.18033265499E+03  0.18443828985E+03  0.25500000000E-02 0. -1.
         -2    1    1    2  502    0  0.37941607514E+02  0.76191022560E+01  0.11783146572E+03  0.12402366960E+03  0.25500000000E-02 0. -1.
<mgrwt>
<rscale>  0 0.79037570E+02</rscale>
<asrwt>0</asrwt>
<pdfrwt beam="2">  1        2 0.79214118E-03 0.79037570E+02</pdfrwt>
<pdfrwt beam="1">  1       -2 0.46663560E-01 0.79037570E+02</pdfrwt>
<totfact> 0.73122810E+04</totfact>
</mgrwt>
</event>
<event>
 4    1  0.4834411E-002  0.4400398E+02  0.7818608E-02  0.1480657E+00
         -2   -1    0    0  501    0 -0.00000000000E+00  0.00000000000E+00  0.40633059904E+00  0.40633860045E+00  0.25500000000E-02 0.  1.
          2   -1    0    0    0  501  0.00000000000E+00 -0.00000000000E+00 -0.11913518006E+04  0.11913518006E+04  0.25500000000E-02 0.  1.
          2    1    1    2    0  502 -0.17977293370E+02  0.12288405460E+02 -0.51026046285E+03  0.51072490436E+03  0.25500000000E-02 0. -1.
         -2    1    1    2  502    0  0.17977293370E+02 -0.12288405460E+02 -0.68068500717E+03  0.68103323486E+03  0.25500000000E-02 0. -1.
<mgrwt>
<rscale>  0 0.44003975E+02</rscale>
<asrwt>0</asrwt>
<pdfrwt beam="2">  1        2 0.18328210E+00 0.44003975E+02</pdfrwt>
<pdfrwt beam="1">  1       -2 0.62513970E-04 0.44003975E+02</pdfrwt>
<totfact> 0.15772676E+06</totfact>
</mgrwt>
</event>
<event>
 4    1  0.4834411E-002  0.6750068E+02  0.7818608E-02  0.1368804E+00
         -2   -1    0    0  501    0 -0.00000000000E+00  0.00000000000E+00  0.70478534498E+01  0.70478539111E+01  0.25500000000E-02 0.  1.
          2   -1    0    0    0  501  0.00000000000E+00 -0.00000000000E+00 -0.16162160943E+03  0.16162160945E+03  0.25500000000E-02 0.  1.
          2    1    1    2    0  502 -0.79131614434E+01  0.32671403068E+02 -0.69771088803E+02  0.77447037011E+02  0.25500000000E-02 0.  1.
         -2    1    1    2  502    0  0.79131614434E+01 -0.32671403068E+02 -0.84802667175E+02  0.91222426349E+02  0.25500000000E-02 0.  1.
<mgrwt>
<rscale>  0 0.67500680E+02</rscale>
<asrwt>0</asrwt>
<pdfrwt beam="2">  1        2 0.24864860E-01 0.67500680E+02</pdfrwt>
<pdfrwt beam="1">  1       -2 0.10842853E-02 0.67500680E+02</pdfrwt>
<totfact> 0.31879922E+05</totfact>
</mgrwt>
</event>
<event>
 4    1  0.4834411E-002  0.5999820E+02  0.7818608E-02  0.1397839E+00
          2   -1    0    0    0  501  0.00000000000E+00  0.00000000000E+00  0.10377453986E+04  0.10377453986E+04  0.25500000000E-02 0.  1.
         -2   -1    0    0  501    0 -0.00000000000E+00 -0.00000000000E+00 -0.86721096424E+00  0.86721471332E+00  0.25500000000E-02 0.  1.
          2    1    1    2    0  502  0.23250629048E+02  0.17238570042E+02  0.38192988968E+03  0.38302506535E+03  0.25500000000E-02 0.  1.
         -2    1    1    2  502    0 -0.23250629048E+02 -0.17238570042E+02  0.65494829794E+03  0.65558754795E+03  0.25500000000E-02 0.  1.
<mgrwt>
<rscale>  0 0.59998205E+02</rscale>
<asrwt>0</asrwt>
<pdfrwt beam="1">  1        2 0.15965313E+00 0.59998205E+02</pdfrwt>
<pdfrwt beam="2">  1       -2 0.13341737E-03 0.59998205E+02</pdfrwt>
<totfact> 0.73574065E+05</totfact>
</mgrwt>
</event>
<event>
 4    1  0.4834411E-002  0.4707097E+02  0.7818608E-02  0.1461812E+00
          2   -1    0    0    0  501  0.00000000000E+00  0.00000000000E+00  0.82364769139E+01  0.82364773087E+01  0.25500000000E-02 0.  1.
         -2   -1    0    0  501    0 -0.00000000000E+00 -0.00000000000E+00 -0.67251951778E+02  0.67251951826E+02  0.25500000000E-02 0.  1.
          2    1    1    2    0  502  0.30878961491E+00 -0.20298323586E+02 -0.48604870365E+02  0.52674004226E+02  0.25500000000E-02 0.  1.
         -2    1    1    2  502    0 -0.30878961491E+00  0.20298323586E+02 -0.10410604498E+02  0.22814424909E+02  0.25500000000E-02 0.  1.
<mgrwt>
<rscale>  0 0.47070975E+02</rscale>
<asrwt>0</asrwt>
<pdfrwt beam="1">  1        2 0.12671504E-02 0.47070975E+02</pdfrwt>
<pdfrwt beam="2">  1       -2 0.10346454E-01 0.47070975E+02</pdfrwt>
<totfact> 0.44634758E+05</totfact>
</mgrwt>
</event>
<event>
 4    1  0.4834411E-002  0.6889997E+02  0.7818608E-02  0.1363874E+00
         -2   -1    0    0  501    0 -0.00000000000E+00  0.00000000000E+00  0.16197037196E+02  0.16197037397E+02  0.25500000000E-02 0. -1.
          2   -1    0    0    0  501  0.00000000000E+00 -0.00000000000E+00 -0.73272756742E+02  0.73272756787E+02  0.25500000000E-02 0. -1.
          2    1    1    2    0  502 -0.21469783189E+02 -0.16805137204E+02 -0.55882582088E+02  0.62178993349E+02  0.25500000000E-02 0.  1.
         -2    1    1    2  502    0  0.21469783189E+02  0.16805137204E+02 -0.11931374587E+01  0.27290800834E+02  0.25500000000E-02 0.  1.
<mgrwt>
<rscale>  0 0.68899973E+02</rscale>
<asrwt>0</asrwt>
<pdfrwt beam="2">  1        2 0.11272732E-01 0.68899973E+02</pdfrwt>
<pdfrwt beam="1">  1       -2 0.24918519E-02 0.68899973E+02</pdfrwt>
<totfact> 0.24058186E+05</totfact>
</mgrwt>
</event>
<event>
 4    1  0.4834411E-002  0.4793377E+02  0.7818608E-02  0.1456816E+00
         -2   -1    0    0  501    0 -0.00000000000E+00  0.00000000000E+00  0.46952688825E+00  0.46953381272E+00  0.25500000000E-02 0. -1.
          2   -1    0    0    0  501  0.00000000000E+00 -0.00000000000E+00 -0.12233745011E+04  0.12233745011E+04  0.25500000000E-02 0. -1.
          2    1    1    2    0  502  0.23633434412E+02  0.32096592631E+01 -0.67171186142E+03  0.67213515450E+03  0.25500000000E-02 0.  1.
         -2    1    1    2  502    0 -0.23633434412E+02 -0.32096592631E+01 -0.55119311283E+03  0.55170888046E+03  0.25500000000E-02 0.  1.
<mgrwt>
<rscale>  0 0.47933765E+02</rscale>
<asrwt>0</asrwt>
<pdfrwt beam="2">  1        2 0.18820891E+00 0.47933765E+02</pdfrwt>
<pdfrwt beam="1">  1       -2 0.72236418E-04 0.47933765E+02</pdfrwt>
<totfact> 0.12758014E+06</totfact>
</mgrwt>
</event>
<event>
 4    1  0.4834411E-002  0.5251601E+02  0.7818608E-02  0.1432225E+00
          2   -1    0    0    0  501  0.00000000000E+00  0.00000000000E+00  0.17341539891E+02  0.17341540078E+02  0.25500000000E-02 0.  1.
         -2   -1    0    0  501    0 -0.00000000000E+00 -0.00000000000E+00 -0.39759034655E+02  0.39759034737E+02  0.25500000000E-02 0.  1.
          2    1    1    2    0  502 -0.64410072806E+01  0.24713780939E+02 -0.17842634759E+02  0.31154729413E+02  0.25500000000E-02 0. -1.
         -2    1    1    2  502    0  0.64410072806E+01 -0.24713780939E+02 -0.45748600053E+01  0.25945845403E+02  0.25500000000E-02 0. -1.
<mgrwt>
<rscale>  0 0.52516013E+02</rscale>
<asrwt>0</asrwt>
<pdfrwt beam="1">  1        2 0.26679293E-02 0.52516013E+02</pdfrwt>
<pdfrwt beam="2">  1       -2 0.61167745E-02 0.52516013E+02</pdfrwt>
<totfact> 0.37702211E+05</totfact>
</mgrwt>
</event>
<event>
 4    1  0.4834411E-002  0.4423849E+02  0.7818608E-02  0.1479152E+00
         -2   -1    0    0  501    0 -0.00000000000E+00  0.00000000000E+00  0.35089668740E+02  0.35089668833E+02  0.25500000000E-02 0.  1.
          2   -1    0    0    0  501  0.00000000000E+00 -0.00000000000E+00 -0.13943160962E+02  0.13943161195E+02  0.25500000000E-02 0.  1.
          2    1    1    2    0  502  0.16100589370E+02  0.14934052736E+02  0.76395146232E+01  0.23251174150E+02  0.25500000000E-02 0.  1.
         -2    1    1    2  502    0 -0.16100589370E+02 -0.14934052736E+02  0.13506993155E+02  0.25781655877E+02  0.25500000000E-02 0.  1.
<mgrwt>
<rscale>  0 0.44238486E+02</rscale>
<asrwt>0</asrwt>
<pdfrwt beam="2">  1        2 0.21451017E-02 0.44238486E+02</pdfrwt>
<pdfrwt beam="1">  1       -2 0.53984105E-02 0.44238486E+02</pdfrwt>
<totfact> 0.57740613E+05</totfact>
</mgrwt>
</event>
<event>
 4    1  0.4834411E-002  0.5633637E+02  0.7818608E-02  0.1413883E+00
          2   -1    0    0    0  501  0.00000000000E+00  0.00000000000E+00  0.46510346862E+02  0.46510346932E+02  0.25500000000E-02 0. -1.
         -2   -1    0    0  501    0 -0.00000000000E+00 -0.00000000000E+00 -0.17059572573E+02  0.17059572764E+02  0.25500000000E-02 0. -1.
          2    1    1    2    0  502  0.26249827119E+02 -0.99191244745E+01  0.11960420804E+02  0.30504001810E+02  0.25500000000E-02 0.  1.
         -2    1    1    2  502    0 -0.26249827119E+02  0.99191244745E+01  0.17490353484E+02  0.33065917885E+02  0.25500000000E-02 0.  1.
<mgrwt>
<rscale>  0 0.56336370E+02</rscale>
<asrwt>0</asrwt>
<pdfrwt beam="1">  1        2 0.71554380E-02 0.56336370E+02</pdfrwt>
<pdfrwt beam="2">  1       -2 0.26245497E-02 0.56336370E+02</pdfrwt>
<totfact> 0.37094214E+05</totfact>
</mgrwt>
</event>
<event>
 4    1  0.4834411E-002  0.4215751E+02  0.7818608E-02  0.1492909E+00
          2   -1    0    0    0  501  0.00000000000E+00  0.00000000000E+00  0.63683026109E+02  0.63683026160E+02  0.25500000000E-02 0. -1.
         -2   -1    0    0  501    0 -0.00000000000E+00 -0.00000000000E+00 -0.69769585614E+01  0.69769590274E+01  0.25500000000E-02 0. -1.
          2    1    1    2    0  502  0.20482415968E+02  0.41346972215E+00  0.20037588180E+02  0.28656679285E+02  0.25500000000E-02 0. -1.
         -2    1    1    2  502    0 -0.20482415968E+02 -0.41346972215E+00  0.36668479367E+02  0.42003305902E+02  0.25500000000E-02 0. -1.
<mgrwt>
<rscale>  0 0.42157507E+02</rscale>
<asrwt>0</asrwt>
<pdfrwt beam="1">  1        2 0.97973883E-02 0.42157507E+02</pdfrwt>
<pdfrwt beam="2">  1       -2 0.10733783E-02 0.42157507E+02</pdfrwt>
<totfact> 0.82862466E+05</totfact>
</mgrwt>
</event>
<event>
 4    1  0.4834411E-002  0.4643569E+02  0.7818608E-02  0.1465573E+00
         -2   -1    0    0  501    0 -0.00000000000E+00  0.00000000000E+00  0.43183093389E+02  0.43183093464E+02  0.25500000000E-02 0.  1.
          2   -1    0    0    0  501  0.00000000000E+00 -0.00000000000E+00 -0.12483316251E+02  0.12483316512E+02  0.25500000000E-02 0.  1.
          2    1    1    2    0  502  0.13669473040E+02 -0.17240267608E+02  0.24239257836E+02  0.32735652541E+02  0.25500000000E-02 0. -1.
         -2    1    1    2  502    0 -0.13669473040E+02  0.17240267608E+02  0.64605193018E+01  0.22930757435E+02  0.25500000000E-02 0. -1.
<mgrwt>
<rscale>  0 0.46435685E+02</rscale>
<asrwt>0</asrwt>
<pdfrwt beam="2">  1        2 0.19205102E-02 0.46435685E+02</pdfrwt>
<pdfrwt beam="1">  1       -2 0.66435528E-02 0.46435685E+02</pdfrwt>
<totfact> 0.49858613E+05</totfact>
</mgrwt>
</event>
<event>
 4    1  0.4834411E-002  0.8585916E+02  0.7818608E-02  0.1313201E+00
         -2   -1    0    0  501    0 -0.00000000000E+00  0.00000000000E+00  0.52414998334E+01  0.52415004536E+01  0.25500000000E-02 0. -1.
          2   -1    0    0    0  501  0.00000000000E+00 -0.00000000000E+00 -0.35160709567E+03  0.35160709568E+03  0.25500000000E-02 0. -1.
          2    1    1    2    0  502  0.25410462941E+02  0.28566157825E+02 -0.25433341908E+03  0.25719098947E+03  0.25500000000E-02 0.  1.
         -2    1    1    2  502    0 -0.25410462941E+02 -0.28566157825E+02 -0.92032176764E+02  0.99657606665E+02  0.25500000000E-02 0.  1.
<mgrwt>
<rscale>  0 0.85859155E+02</rscale>
<asrwt>0</asrwt>
<pdfrwt beam="2">  1        2 0.54093381E-01 0.85859155E+02</pdfrwt>
<pdfrwt beam="1">  1       -2 0.80638491E-03 0.85859155E+02</pdfrwt>
<totfact> 0.22341086E+05</totfact>
</mgrwt>
</event>
<event>
 4    1  0.4834411E-002  0.7713313E+02  0.7818608E-02  0.1337390E+00
          2   -1    0    0    0  501  0.00000000000E+00  0.00000000000E+00  0.10316505884E+04  0.10316505884E+04  0.25500000000E-02 0. -1.
         -2   -1    0    0  501    0 -0.00000000000E+00 -0.00000000000E+00 -0.14417466881E+01  0.14417489432E+01  0.25500000000E-02 0. -1.
          2    1    1    2    0  502 -0.29758130818E+02  0.22697758296E+02  0.63977699526E+03  0.64087076564E+03  0.25500000000E-02 0.  1.
         -2    1    1    2  502    0  0.29758130818E+02 -0.22697758296E+02  0.39043184643E+03  0.39222157169E+03  0.25500000000E-02 0.  1.
<mgrwt>
<rscale>  0 0.77133131E+02</rscale>
<asrwt>0</asrwt>
<pdfrwt beam="1">  1        2 0.15871541E+00 0.77133131E+02</pdfrwt>
<pdfrwt beam="2">  1       -2 0.22180745E-03 0.77133131E+02</pdfrwt>
<totfact> 0.38730260E+05</totfact>
</mgrwt>
</event>
<event>
 4    1  0.4834411E-002  0.5545107E+02  0.7818608E-02  0.1417978E+00
         -2   -1    0    0  501    0 -0.00000000000E+00  0.00000000000E+00  0.86716499698E+02  0.86716499736E+02  0.25500000000E-02 0. -1.
          2   -1    0    0    0  501  0.00000000000E+00 -0.00000000000E+00 -0.88645799807E+01  0.88645803475E+01  0.25500000000E-02 0. -1.
          2    1    1    2    0  502  0.30400660106E+01  0.24176536735E+02  0.61725674862E+02  0.66361177457E+02  0.25500000000E-02 0. -1.
         -2    1    1    2  502    0 -0.30400660106E+01 -0.24176536735E+02  0.16126244856E+02  0.29219902626E+02  0.25500000000E-02 0. -1.
<mgrwt>
<rscale>  0 0.55451073E+02</rscale>
<asrwt>0</asrwt>
<pdfrwt beam="2">  1        2 0.13637816E-02 0.55451073E+02</pdfrwt>
<pdfrwt beam="1">  1       -2 0.13341000E-01 0.55451073E+02</pdfrwt>
<totfact> 0.28375884E+05</totfact>
</mgrwt>
</event>
<event>
 4    1  0.4834411E-002  0.9262241E+02  0.7818608E-02  0.1296623E+00
          2   -1    0    0    0  501  0.00000000000E+00  0.00000000000E+00  0.68178676188E+02  0.68178676236E+02  0.25500000000E-02 0.  1.
         -2   -1    0    0  501    0 -0.00000000000E+00 -0.00000000000E+00 -0.31457455730E+02  0.31457455834E+02  0.25500000000E-02 0.  1.
          2    1    1    2    0  502 -0.61254991141E+01 -0.19466297369E+02  0.63081092788E+02  0.66299945298E+02  0.25500000000E-02 0. -1.
         -2    1    1    2  502    0  0.61254991141E+01  0.19466297369E+02 -0.26359872331E+02  0.33336186771E+02  0.25500000000E-02 0. -1.
<mgrwt>
<rscale>  0 0.92622410E+02</rscale>
<asrwt>0</asrwt>
<pdfrwt beam="1">  1        2 0.10489027E-01 0.92622410E+02</pdfrwt>
<pdfrwt beam="2">  1       -2 0.48396087E-02 0.92622410E+02</pdfrwt>
<totfact> 0.10507214E+05</totfact>
</mgrwt>
</event>
<event>
 4    1  0.4834411E-002  0.5688733E+02  0.7818608E-02  0.1411379E+00
         -2   -1    0    0  501    0 -0.00000000000E+00  0.00000000000E+00  0.22965263736E+03  0.22965263737E+03  0.25500000000E-02 0. -1.
          2   -1    0    0    0  501  0.00000000000E+00 -0.00000000000E+00 -0.35228946031E+01  0.35228955260E+01  0.25500000000E-02 0. -1.
          2    1    1    2    0  502 -0.17378181752E+02  0.18248595748E+02  0.58992043263E+02  0.64148839605E+02  0.25500000000E-02 0. -1.
         -2    1    1    2  502    0  0.17378181752E+02 -0.18248595748E+02  0.16713769949E+03  0.16902669329E+03  0.25500000000E-02 0. -1.
<mgrwt>
<rscale>  0 0.56887332E+02</rscale>
<asrwt>0</asrwt>
<pdfrwt beam="2">  1        2 0.54198397E-03 0.56887332E+02</pdfrwt>
<pdfrwt beam="1">  1       -2 0.35331167E-01 0.56887332E+02</pdfrwt>
<totfact> 0.19299433E+05</totfact>
</mgrwt>
</event>
<event>
 4    1  0.4834411E-002  0.9179741E+02  0.7818608E-02  0.1298556E+00
         -2   -1    0    0  501    0 -0.00000000000E+00  0.00000000000E+00  0.48918404969E+01  0.48918411615E+01  0.25500000000E-02 0. -1.
          2   -1    0    0    0  501  0.00000000000E+00 -0.00000000000E+00 -0.43065404918E+03  0.43065404918E+03  0.25500000000E-02 0. -1.
          2    1    1    2    0  502  0.98065673062E+01 -0.40370131669E+02 -0.12029675537E+03  0.12726832148E+03  0.25500000000E-02 0.  1.
         -2    1    1    2  502    0 -0.98065673062E+01  0.40370131669E+02 -0.30546545331E+03  0.30827756887E+03  0.25500000000E-02 0.  1.
<mgrwt>
<rscale>  0 0.91797409E+02</rscale>
<asrwt>0</asrwt>
<pdfrwt beam="2">  1        2 0.66254439E-01 0.91797409E+02</pdfrwt>
<pdfrwt beam="1">  1       -2 0.75259124E-03 0.91797409E+02</pdfrwt>
<totfact> 0.20124590E+05</totfact>
</mgrwt>
</event>
<event>
 4    1  0.4834411E-002  0.5586110E+02  0.7818608E-02  0.1416070E+00
         -2   -1    0    0  501    0 -0.00000000000E+00  0.00000000000E+00  0.25638310626E+03  0.25638310627E+03  0.25500000000E-02 0. -1.
          2   -1    0    0    0  501  0.00000000000E+00 -0.00000000000E+00 -0.30427729207E+01  0.30427739892E+01  0.25500000000E-02 0. -1.
          2    1    1    2    0  502  0.18773847226E+02 -0.12413939028E+02  0.49859042258E+02  0.54703631719E+02  0.25500000000E-02 0. -1.
         -2    1    1    2  502    0 -0.18773847226E+02  0.12413939028E+02  0.20348129108E+03  0.20472224854E+03  0.25500000000E-02 0. -1.
<mgrwt>
<rscale>  0 0.55861103E+02</rscale>
<asrwt>0</asrwt>
<pdfrwt beam="2">  1        2 0.46811892E-03 0.55861103E+02</pdfrwt>
<pdfrwt beam="1">  1       -2 0.39443561E-01 0.55861103E+02</pdfrwt>
<totfact> 0.19164784E+05</totfact>
</mgrwt>
</event>
<event>
 4    1  0.4834411E-002  0.8854635E+02  0.7818608E-02  0.1306411E+00
          2   -1    0    0    0  501  0.00000000000E+00  0.00000000000E+00  0.33119904120E+02  0.33119904218E+02  0.25500000000E-02 0.  1.
         -2   -1    0    0  501    0 -0.00000000000E+00 -0.00000000000E+00 -0.59182353365E+02  0.59182353420E+02  0.25500000000E-02 0.  1.
          2    1    1    2    0  502  0.26905383930E+02 -0.19855091974E+02 -0.43279109836E+02  0.54691916372E+02  0.25500000000E-02 0.  1.
         -2    1    1    2  502    0 -0.26905383930E+02  0.19855091974E+02  0.17216660591E+02  0.37610341266E+02  0.25500000000E-02 0.  1.
<mgrwt>
<rscale>  0 0.88546347E+02</rscale>
<asrwt>0</asrwt>
<pdfrwt beam="1">  1        2 0.50953699E-02 0.88546347E+02</pdfrwt>
<pdfrwt beam="2">  1       -2 0.91049774E-02 0.88546347E+02</pdfrwt>
<totfact> 0.98945722E+04</totfact>
</mgrwt>
</event>
<event>
 4    1  0.4834411E-002  0.1396671E+03  0.7818608E-02  0.1213778E+00
         -2   -1    0    0  501    0 -0.00000000000E+00  0.00000000000E+00  0.24973910579E+01  0.24973923598E+01  0.25500000000E-02 0. -1.
          2   -1    0    0    0  501  0.00000000000E+00 -0.00000000000E+00 -0.19527274439E+04  0.19527274439E+04  0.25500000000E-02 0. -1.
          2    1    1    2    0  502  0.17198596958E+02 -0.36245300495E+02 -0.17492855466E+03  0.17947008884E+03  0.25500000000E-02 0. -1.
         -2    1    1    2  502    0 -0.17198596958E+02  0.36245300495E+02 -0.17753014982E+04  0.17757547474E+04  0.25500000000E-02 0. -1.
<mgrwt>
<rscale>  0 0.13966711E+03</rscale>
<asrwt>0</asrwt>
<pdfrwt beam="2">  1        2 0.30041839E+00 0.13966711E+03</pdfrwt>
<pdfrwt beam="1">  1       -2 0.38421567E-03 0.13966711E+03</pdfrwt>
<totfact> 0.63726099E+04</totfact>
</mgrwt>
</event>
<event>
 4    1  0.4834411E-002  0.5589805E+02  0.7818608E-02  0.1415899E+00
         -2   -1    0    0  501    0 -0.00000000000E+00  0.00000000000E+00  0.19201397563E+01  0.19201414496E+01  0.25500000000E-02 0.  1.
          2   -1    0    0    0  501  0.00000000000E+00 -0.00000000000E+00 -0.40681814662E+03  0.40681814663E+03  0.25500000000E-02 0.  1.
          2    1    1    2    0  502  0.60721909245E+01 -0.26350559155E+02 -0.15078288828E+03  0.15318845542E+03  0.25500000000E-02 0. -1.
         -2    1    1    2  502    0 -0.60721909245E+01  0.26350559155E+02 -0.25411511858E+03  0.25554983265E+03  0.25500000000E-02 0. -1.
<mgrwt>
<rscale>  0 0.55898052E+02</rscale>
<asrwt>0</asrwt>
<pdfrwt beam="2">  1        2 0.62587339E-01 0.55898052E+02</pdfrwt>
<pdfrwt beam="1">  1       -2 0.29540657E-03 0.55898052E+02</pdfrwt>
<totfact> 0.71115211E+05</totfact>
</mgrwt>
</event>
<event>
 4    1  0.4834411E-002  0.5530974E+02  0.7818608E-02  0.1418640E+00
          2   -1    0    0    0  501  0.00000000000E+00  0.00000000000E+00  0.18032623395E+04  0.18032623395E+04  0.25500000000E-02 0.  1.
         -2   -1    0    0  501    0 -0.00000000000E+00 -0.00000000000E+00 -0.42411182196E+00  0.42411948791E+00  0.25500000000E-02 0.  1.
          2    1    1    2    0  502  0.21761794449E+02  0.14934873158E+02  0.11706607577E+04  0.11709582553E+04  0.25500000000E-02 0.  1.
         -2    1    1    2  502    0 -0.21761794449E+02 -0.14934873158E+02  0.63217746995E+03  0.63272820362E+03  0.25500000000E-02 0.  1.
<mgrwt>
<rscale>  0 0.55309738E+02</rscale>
<asrwt>0</asrwt>
<pdfrwt beam="1">  1        2 0.27742974E+00 0.55309738E+02</pdfrwt>
<pdfrwt beam="2">  1       -2 0.65247442E-04 0.55309738E+02</pdfrwt>
<totfact> 0.77564199E+05</totfact>
</mgrwt>
</event>
<event>
 4    1  0.4834411E-002  0.4991090E+02  0.7818608E-02  0.1445823E+00
         -2   -1    0    0  501    0 -0.00000000000E+00  0.00000000000E+00  0.51077529093E+01  0.51077535459E+01  0.25500000000E-02 0. -1.
          2   -1    0    0    0  501  0.00000000000E+00 -0.00000000000E+00 -0.12192729196E+03  0.12192729199E+03  0.25500000000E-02 0. -1.
          2    1    1    2    0  502 -0.19806559901E+02 -0.13904092121E+02 -0.42896157093E+02  0.49251435438E+02  0.25500000000E-02 0.  1.
         -2    1    1    2  502    0  0.19806559901E+02  0.13904092121E+02 -0.73923381958E+02  0.77783610095E+02  0.25500000000E-02 0.  1.
<mgrwt>
<rscale>  0 0.49910902E+02</rscale>
<asrwt>0</asrwt>
<pdfrwt beam="2">  1        2 0.18758043E-01 0.49910902E+02</pdfrwt>
<pdfrwt beam="1">  1       -2 0.78580828E-03 0.49910902E+02</pdfrwt>
<totfact> 0.63467148E+05</totfact>
</mgrwt>
</event>
<event>
 4    1  0.4834411E-002  0.4555783E+02  0.7818608E-02  0.1470889E+00
         -2   -1    0    0  501    0 -0.00000000000E+00  0.00000000000E+00  0.41836492981E+03  0.41836492982E+03  0.25500000000E-02 0.  1.
          2   -1    0    0    0  501  0.00000000000E+00 -0.00000000000E+00 -0.12402529323E+01  0.12402555538E+01  0.25500000000E-02 0.  1.
          2    1    1    2    0  502 -0.19577618397E+02 -0.67396169083E+01  0.29602381994E+03  0.29674704304E+03  0.25500000000E-02 0. -1.
         -2    1    1    2  502    0  0.19577618397E+02  0.67396169083E+01  0.12110085694E+03  0.12285814233E+03  0.25500000000E-02 0. -1.
<mgrwt>
<rscale>  0 0.45557826E+02</rscale>
<asrwt>0</asrwt>
<pdfrwt beam="2">  1        2 0.19080865E-03 0.45557826E+02</pdfrwt>
<pdfrwt beam="1">  1       -2 0.64363734E-01 0.45557826E+02</pdfrwt>
<totfact> 0.23721371E+05</totfact>
</mgrwt>
</event>
<event>
 4    1  0.4834411E-002  0.4553338E+02  0.7818608E-02  0.1471039E+00
         -2   -1    0    0  501    0 -0.00000000000E+00  0.00000000000E+00  0.13875414950E+04  0.13875414950E+04  0.25500000000E-02 0. -1.
          2   -1    0    0    0  501  0.00000000000E+00 -0.00000000000E+00 -0.37355005651E+00  0.37355876006E+00  0.25500000000E-02 0. -1.
          2    1    1    2    0  502  0.14403480838E+01  0.20915311185E+02  0.42300820767E+03  0.42352741187E+03  0.25500000000E-02 0. -1.
         -2    1    1    2  502    0 -0.14403480838E+01 -0.20915311185E+02  0.96415973723E+03  0.96438764185E+03  0.25500000000E-02 0. -1.
<mgrwt>
<rscale>  0 0.45533383E+02</rscale>
<asrwt>0</asrwt>
<pdfrwt beam="2">  1        2 0.57468723E-04 0.45533383E+02</pdfrwt>
<pdfrwt beam="1">  1       -2 0.21347233E+00 0.45533383E+02</pdfrwt>
<totfact> 0.69575265E+04</totfact>
</mgrwt>
</event>
<event>
 4    1  0.4834411E-002  0.7885548E+02  0.7818608E-02  0.1332331E+00
         -2   -1    0    0  501    0 -0.00000000000E+00  0.00000000000E+00  0.42018353182E+01  0.42018360920E+01  0.25500000000E-02 0. -1.
          2   -1    0    0    0  501  0.00000000000E+00 -0.00000000000E+00 -0.36996844436E+03  0.36996844437E+03  0.25500000000E-02 0. -1.
          2    1    1    2    0  502  0.30302766911E+02  0.19859119173E+00 -0.30257145154E+03  0.30408515323E+03  0.25500000000E-02 0. -1.
         -2    1    1    2  502    0 -0.30302766911E+02 -0.19859119173E+00 -0.63195157504E+02  0.70085127234E+02  0.25500000000E-02 0. -1.
<mgrwt>
<rscale>  0 0.78855479E+02</rscale>
<asrwt>0</asrwt>
<pdfrwt beam="2">  1        2 0.56918197E-01 0.78855479E+02</pdfrwt>
<pdfrwt beam="1">  1       -2 0.64643655E-03 0.78855479E+02</pdfrwt>
<totfact> 0.28460245E+05</totfact>
</mgrwt>
</event>
<event>
 4    1  0.4834411E-002  0.4339518E+02  0.7818608E-02  0.1484616E+00
          2   -1    0    0    0  501  0.00000000000E+00  0.00000000000E+00  0.62036958165E+03  0.62036958166E+03  0.25500000000E-02 0. -1.
         -2   -1    0    0  501    0 -0.00000000000E+00 -0.00000000000E+00 -0.75887694229E+00  0.75888122657E+00  0.25500000000E-02 0. -1.
          2    1    1    2    0  502 -0.20229359798E+02 -0.67025412732E+01  0.25142805554E+03  0.25232958244E+03  0.25500000000E-02 0.  1.
         -2    1    1    2  502    0  0.20229359798E+02  0.67025412732E+01  0.36818264917E+03  0.36879888044E+03  0.25500000000E-02 0.  1.
<mgrwt>
<rscale>  0 0.43395184E+02</rscale>
<asrwt>0</asrwt>
<pdfrwt beam="1">  1        2 0.95441185E-01 0.43395184E+02</pdfrwt>
<pdfrwt beam="2">  1       -2 0.11675098E-03 0.43395184E+02</pdfrwt>
<totfact> 0.15116990E+06</totfact>
</mgrwt>
</event>
<event>
 4    1  0.4834411E-002  0.5558667E+02  0.7818608E-02  0.1417345E+00
          2   -1    0    0    0  501  0.00000000000E+00  0.00000000000E+00  0.13028089483E+02  0.13028089732E+02  0.25500000000E-02 0.  1.
         -2   -1    0    0  501    0 -0.00000000000E+00 -0.00000000000E+00 -0.59292607135E+02  0.59292607190E+02  0.25500000000E-02 0.  1.
          2    1    1    2    0  502  0.16745786795E+02  0.20770098444E+02 -0.33264629244E+02  0.42642161414E+02  0.25500000000E-02 0. -1.
         -2    1    1    2  502    0 -0.16745786795E+02 -0.20770098444E+02 -0.12999888408E+02  0.29678535508E+02  0.25500000000E-02 0. -1.
<mgrwt>
<rscale>  0 0.55586668E+02</rscale>
<asrwt>0</asrwt>
<pdfrwt beam="1">  1        2 0.20043215E-02 0.55586668E+02</pdfrwt>
<pdfrwt beam="2">  1       -2 0.91219394E-02 0.55586668E+02</pdfrwt>
<totfact> 0.30598532E+05</totfact>
</mgrwt>
</event>
<event>
 4    1  0.4834411E-002  0.9796176E+02  0.7818608E-02  0.1284641E+00
          2   -1    0    0    0  501  0.00000000000E+00  0.00000000000E+00  0.27042788878E+03  0.27042788879E+03  0.25500000000E-02 0.  1.
         -2   -1    0    0  501    0 -0.00000000000E+00 -0.00000000000E+00 -0.88715951554E+01  0.88715955219E+01  0.25500000000E-02 0.  1.
          2    1    1    2    0  502  0.45597410799E+02 -0.12974230014E+02  0.16589104216E+03  0.17253200396E+03  0.25500000000E-02 0. -1.
         -2    1    1    2  502    0 -0.45597410799E+02  0.12974230014E+02  0.95665251459E+02  0.10676748035E+03  0.25500000000E-02 0. -1.
<mgrwt>
<rscale>  0 0.97961764E+02</rscale>
<asrwt>0</asrwt>
<pdfrwt beam="1">  1        2 0.41604286E-01 0.97961764E+02</pdfrwt>
<pdfrwt beam="2">  1       -2 0.13648610E-02 0.97961764E+02</pdfrwt>
<totfact> 0.14253295E+05</totfact>
</mgrwt>
</event>
<event>
 4    1  0.4834411E-002  0.8798022E+02  0.7818608E-02  0.1307818E+00
          2   -1    0    0    0  501  0.00000000000E+00  0.00000000000E+00  0.41419308435E+03  0.41419308436E+03  0.25500000000E-02 0. -1.
         -2   -1    0    0  501    0 -0.00000000000E+00 -0.00000000000E+00 -0.46720471428E+01  0.46720478387E+01  0.25500000000E-02 0. -1.
          2    1    1    2    0  502 -0.16932707506E+01  0.32330284506E+02  0.34655349598E+03  0.34806240826E+03  0.25500000000E-02 0. -1.
         -2    1    1    2  502    0  0.16932707506E+01 -0.32330284506E+02  0.62967541235E+02  0.70802723943E+02  0.25500000000E-02 0. -1.
<mgrwt>
<rscale>  0 0.87980220E+02</rscale>
<asrwt>0</asrwt>
<pdfrwt beam="1">  1        2 0.63722034E-01 0.87980220E+02</pdfrwt>
<pdfrwt beam="2">  1       -2 0.71877631E-03 0.87980220E+02</pdfrwt>
<totfact> 0.22214280E+05</totfact>
</mgrwt>
</event>
<event>
 4    1  0.4834411E-002  0.1251896E+03  0.7818608E-02  0.1234773E+00
          2   -1    0    0    0  501  0.00000000000E+00  0.00000000000E+00  0.30765289848E+04  0.30765289848E+04  0.25500000000E-02 0.  1.
         -2   -1    0    0  501    0 -0.00000000000E+00 -0.00000000000E+00 -0.12735482526E+01  0.12735508055E+01  0.25500000000E-02 0.  1.
          2    1    1    2    0  502  0.51813879282E+02 -0.32351397891E+02  0.18736632363E+04  0.18746586927E+04  0.25500000000E-02 0. -1.
         -2    1    1    2  502    0 -0.51813879282E+02  0.32351397891E+02  0.12015922003E+04  0.12031438429E+04  0.25500000000E-02 0. -1.
<mgrwt>
<rscale>  0 0.12518965E+03</rscale>
<asrwt>0</asrwt>
<pdfrwt beam="1">  1        2 0.47331695E+00 0.12518965E+03</pdfrwt>
<pdfrwt beam="2">  1       -2 0.19592871E-03 0.12518965E+03</pdfrwt>
<totfact> 0.40399372E+04</totfact>
</mgrwt>
</event>
<event>
 4    1  0.4834411E-002  0.1085094E+03  0.7818608E-02  0.1263355E+00
          2   -1    0    0    0  501  0.00000000000E+00  0.00000000000E+00  0.29288739459E+03  0.29288739460E+03  0.25500000000E-02 0. -1.
         -2   -1    0    0  501    0 -0.00000000000E+00 -0.00000000000E+00 -0.10050180669E+02  0.10050180993E+02  0.25500000000E-02 0. -1.
          2    1    1    2    0  502  0.12964119951E+02  0.16443629954E+02  0.28115169700E+03  0.28193037812E+03  0.25500000000E-02 0. -1.
         -2    1    1    2  502    0 -0.12964119951E+02 -0.16443629954E+02  0.16855169233E+01  0.21007197480E+02  0.25500000000E-02 0. -1.
<mgrwt>
<rscale>  0 0.10850938E+03</rscale>
<asrwt>0</asrwt>
<pdfrwt beam="1">  1        2 0.45059594E-01 0.10850938E+03</pdfrwt>
<pdfrwt beam="2">  1       -2 0.15461818E-02 0.10850938E+03</pdfrwt>
<totfact> 0.11137136E+05</totfact>
</mgrwt>
</event>
<event>
 4    1  0.4834411E-002  0.4343774E+02  0.7818608E-02  0.1484337E+00
         -2   -1    0    0  501    0 -0.00000000000E+00  0.00000000000E+00  0.11363460351E+02  0.11363460637E+02  0.25500000000E-02 0. -1.
          2   -1    0    0    0  501  0.00000000000E+00 -0.00000000000E+00 -0.41511055846E+02  0.41511055924E+02  0.25500000000E-02 0. -1.
          2    1    1    2    0  502  0.21297680438E+02 -0.15361903531E+01 -0.19905855049E+02  0.29192364491E+02  0.25500000000E-02 0. -1.
         -2    1    1    2  502    0 -0.21297680438E+02  0.15361903531E+01 -0.10241740446E+02  0.23682152070E+02  0.25500000000E-02 0. -1.
<mgrwt>
<rscale>  0 0.43437737E+02</rscale>
<asrwt>0</asrwt>
<pdfrwt beam="2">  1        2 0.63863162E-02 0.43437737E+02</pdfrwt>
<pdfrwt beam="1">  1       -2 0.17482247E-02 0.43437737E+02</pdfrwt>
<totfact> 0.71073488E+05</totfact>
</mgrwt>
</event>
<event>
 4    1  0.4834411E-002  0.1052786E+03  0.7818608E-02  0.1269572E+00
          2   -1    0    0    0  501  0.00000000000E+00  0.00000000000E+00  0.12247873979E+03  0.12247873982E+03  0.25500000000E-02 0.  1.
         -2   -1    0    0  501    0 -0.00000000000E+00 -0.00000000000E+00 -0.22623503157E+02  0.22623503301E+02  0.25500000000E-02 0.  1.
          2    1    1    2    0  502 -0.32354061838E+02 -0.27659065199E+02  0.72437970176E+01  0.43177329779E+02  0.25500000000E-02 0.  1.
         -2    1    1    2  502    0  0.32354061838E+02  0.27659065199E+02  0.92611439619E+02  0.10192491334E+03  0.25500000000E-02 0.  1.
<mgrwt>
<rscale>  0 0.10527864E+03</rscale>
<asrwt>0</asrwt>
<pdfrwt beam="1">  1        2 0.18842883E-01 0.10527864E+03</pdfrwt>
<pdfrwt beam="2">  1       -2 0.34805390E-02 0.10527864E+03</pdfrwt>
<totfact> 0.87877451E+04</totfact>
</mgrwt>
</event>
<event>
 4    1  0.4834411E-002  0.1052980E+03  0.7818608E-02  0.1269534E+00
         -2   -1    0    0  501    0 -0.00000000000E+00  0.00000000000E+00  0.16802631916E+03  0.16802631918E+03  0.25500000000E-02 0. -1.
          2   -1    0    0    0  501  0.00000000000E+00 -0.00000000000E+00 -0.16496910101E+02  0.16496910298E+02  0.25500000000E-02 0. -1.
          2    1    1    2    0  502  0.15854348089E+02  0.43831083322E+02  0.32861853525E+02  0.57030041575E+02  0.25500000000E-02 0. -1.
         -2    1    1    2  502    0 -0.15854348089E+02 -0.43831083322E+02  0.11866755553E+03  0.12749318790E+03  0.25500000000E-02 0. -1.
<mgrwt>
<rscale>  0 0.10529796E+03</rscale>
<asrwt>0</asrwt>
<pdfrwt beam="2">  1        2 0.25379862E-02 0.10529796E+03</pdfrwt>
<pdfrwt beam="1">  1       -2 0.25850202E-01 0.10529796E+03</pdfrwt>
<totfact> 0.46405938E+04</totfact>
</mgrwt>
</event>
<event>
 4    1  0.4834411E-002  0.4537660E+02  0.7818608E-02  0.1472004E+00
          2   -1    0    0    0  501  0.00000000000E+00  0.00000000000E+00  0.20676813651E+01  0.20676829375E+01  0.25500000000E-02 0. -1.
         -2   -1    0    0  501    0 -0.00000000000E+00 -0.00000000000E+00 -0.24895459022E+03  0.24895459023E+03  0.25500000000E-02 0. -1.
          2    1    1    2    0  502 -0.34476833818E+01 -0.22365556728E+02 -0.13245618117E+03  0.13437538683E+03  0.25500000000E-02 0. -1.
         -2    1    1    2  502    0  0.34476833818E+01  0.22365556728E+02 -0.11443072768E+03  0.11664688634E+03  0.25500000000E-02 0. -1.
<mgrwt>
<rscale>  0 0.45376600E+02</rscale>
<asrwt>0</asrwt>
<pdfrwt beam="1">  1        2 0.31810514E-03 0.45376600E+02</pdfrwt>
<pdfrwt beam="2">  1       -2 0.38300683E-01 0.45376600E+02</pdfrwt>
<totfact> 0.32421624E+05</totfact>
</mgrwt>
</event>
<event>
 4    1  0.4834411E-002  0.4105541E+02  0.7818608E-02  0.1500585E+00
          2   -1    0    0    0  501  0.00000000000E+00  0.00000000000E+00  0.50978940540E+03  0.50978940540E+03  0.25500000000E-02 0. -1.
         -2   -1    0    0  501    0 -0.00000000000E+00 -0.00000000000E+00 -0.82658757003E+00  0.82659150336E+00  0.25500000000E-02 0. -1.
          2    1    1    2    0  502 -0.14914983367E+02 -0.14100986600E+02  0.25070832556E+03  0.25154713090E+03  0.25500000000E-02 0. -1.
         -2    1    1    2  502    0  0.14914983367E+02  0.14100986600E+02  0.25825449227E+03  0.25906886601E+03  0.25500000000E-02 0. -1.
<mgrwt>
<rscale>  0 0.41055406E+02</rscale>
<asrwt>0</asrwt>
<pdfrwt beam="1">  1        2 0.78429276E-01 0.41055406E+02</pdfrwt>
<pdfrwt beam="2">  1       -2 0.12716740E-03 0.41055406E+02</pdfrwt>
<totfact> 0.16356367E+06</totfact>
</mgrwt>
</event>
<event>
 4    1  0.4834411E-002  0.4644780E+02  0.7818608E-02  0.1465501E+00
         -2   -1    0    0  501    0 -0.00000000000E+00  0.00000000000E+00  0.12308883845E+01  0.12308910259E+01  0.25500000000E-02 0. -1.
          2   -1    0    0    0  501  0.00000000000E+00 -0.00000000000E+00 -0.43817867249E+03  0.43817867250E+03  0.25500000000E-02 0. -1.
          2    1    1    2    0  502 -0.21224664720E+02  0.49242631122E+01 -0.14242892002E+03  0.14408584950E+03  0.25500000000E-02 0.  1.
         -2    1    1    2  502    0  0.21224664720E+02 -0.49242631122E+01 -0.29451886409E+03  0.29532371403E+03  0.25500000000E-02 0.  1.
<mgrwt>
<rscale>  0 0.46447804E+02</rscale>
<asrwt>0</asrwt>
<pdfrwt beam="2">  1        2 0.67411979E-01 0.46447804E+02</pdfrwt>
<pdfrwt beam="1">  1       -2 0.18936800E-03 0.46447804E+02</pdfrwt>
<totfact> 0.11549477E+06</totfact>
</mgrwt>
</event>
<event>
 4    1  0.4834411E-002  0.4891408E+02  0.7818608E-02  0.1451288E+00
         -2   -1    0    0  501    0 -0.00000000000E+00  0.00000000000E+00  0.48658424239E+00  0.48659092413E+00  0.25500000000E-02 0. -1.
          2   -1    0    0    0  501  0.00000000000E+00 -0.00000000000E+00 -0.12292687219E+04  0.12292687219E+04  0.25500000000E-02 0. -1.
          2    1    1    2    0  502 -0.17152681756E+02 -0.15056404266E+02 -0.83534296965E+03  0.83565470545E+03  0.25500000000E-02 0. -1.
         -2    1    1    2  502    0  0.17152681756E+02  0.15056404266E+02 -0.39343916799E+03  0.39410060735E+03  0.25500000000E-02 0. -1.
<mgrwt>
<rscale>  0 0.48914084E+02</rscale>
<asrwt>0</asrwt>
<pdfrwt beam="2">  1        2 0.18911578E+00 0.48914084E+02</pdfrwt>
<pdfrwt beam="1">  1       -2 0.74860612E-04 0.48914084E+02</pdfrwt>
<totfact> 0.12130260E+06</totfact>
</mgrwt>
</event>
<event>
 4    1  0.4834411E-002  0.6984414E+02  0.7818608E-02  0.1360624E+00
          2   -1    0    0    0  501  0.00000000000E+00  0.00000000000E+00  0.10275768522E+03  0.10275768525E+03  0.25500000000E-02 0.  1.
         -2   -1    0    0  501    0 -0.00000000000E+00 -0.00000000000E+00 -0.11868221036E+02  0.11868221310E+02  0.25500000000E-02 0.  1.
          2    1    1    2    0  502 -0.29514570932E+02  0.12013902807E+02  0.21998020004E+02  0.38721526940E+02  0.25500000000E-02 0. -1.
         -2    1    1    2  502    0  0.29514570932E+02 -0.12013902807E+02  0.68891444175E+02  0.75904379617E+02  0.25500000000E-02 0. -1.
<mgrwt>
<rscale>  0 0.69844139E+02</rscale>
<asrwt>0</asrwt>
<pdfrwt beam="1">  1        2 0.15808874E-01 0.69844139E+02</pdfrwt>
<pdfrwt beam="2">  1       -2 0.18258802E-02 0.69844139E+02</pdfrwt>
<totfact> 0.25383719E+05</totfact>
</mgrwt>
</event>
<event>
 4    1  0.4834411E-002  0.9259157E+02  0.7818608E-02  0.1296694E+00
          2   -1    0    0    0  501  0.00000000000E+00  0.00000000000E+00  0.44943684883E+01  0.44943692117E+01  0.25500000000E-02 0.  1.
         -2   -1    0    0  501    0 -0.00000000000E+00 -0.00000000000E+00 -0.47688558191E+03  0.47688558191E+03  0.25500000000E-02 0.  1.
          2    1    1    2    0  502 -0.17040730117E+02 -0.27911362854E+02 -0.65825964367E+02  0.73501620735E+02  0.25500000000E-02 0.  1.
         -2    1    1    2  502    0  0.17040730117E+02  0.27911362854E+02 -0.40656524905E+03  0.40787833039E+03  0.25500000000E-02 0.  1.
<mgrwt>
<rscale>  0 0.92591570E+02</rscale>
<asrwt>0</asrwt>
<pdfrwt beam="1">  1        2 0.69144174E-03 0.92591570E+02</pdfrwt>
<pdfrwt beam="2">  1       -2 0.73366972E-01 0.92591570E+02</pdfrwt>
<totfact> 0.36173394E+04</totfact>
</mgrwt>
</event>
<event>
 4    1  0.4834411E-002  0.5361685E+02  0.7818608E-02  0.1426755E+00
          2   -1    0    0    0  501  0.00000000000E+00  0.00000000000E+00  0.31178033082E+02  0.31178033186E+02  0.25500000000E-02 0.  1.
         -2   -1    0    0  501    0 -0.00000000000E+00 -0.00000000000E+00 -0.23051214574E+02  0.23051214715E+02  0.25500000000E-02 0.  1.
          2    1    1    2    0  502 -0.25879193581E+02 -0.44592390806E+01  0.95170325947E+01  0.27931906299E+02  0.25500000000E-02 0.  1.
         -2    1    1    2  502    0  0.25879193581E+02  0.44592390806E+01 -0.13902140871E+01  0.26297341602E+02  0.25500000000E-02 0.  1.
<mgrwt>
<rscale>  0 0.53616846E+02</rscale>
<asrwt>0</asrwt>
<pdfrwt beam="1">  1        2 0.47966204E-02 0.53616846E+02</pdfrwt>
<pdfrwt beam="2">  1       -2 0.35463408E-02 0.53616846E+02</pdfrwt>
<totfact> 0.39311352E+05</totfact>
</mgrwt>
</event>
<event>
 4    1  0.4834411E-002  0.4119588E+02  0.7818608E-02  0.1499591E+00
         -2   -1    0    0  501    0 -0.00000000000E+00  0.00000000000E+00  0.16910773945E+00  0.16912696427E+00  0.25500000000E-02 0.  1.
          2   -1    0    0    0  501  0.00000000000E+00 -0.00000000000E+00 -0.25087621789E+04  0.25087621789E+04  0.25500000000E-02 0.  1.
          2    1    1    2    0  502 -0.19616440995E+02  0.54660344336E+01 -0.14429263874E+04  0.14430700751E+04  0.25500000000E-02 0. -1.
         -2    1    1    2  502    0  0.19616440995E+02 -0.54660344336E+01 -0.10656666837E+04  0.10658612307E+04  0.25500000000E-02 0. -1.
<mgrwt>
<rscale>  0 0.41195884E+02</rscale>
<asrwt>0</asrwt>
<pdfrwt beam="2">  1        2 0.38593361E+00 0.41195884E+02</pdfrwt>
<pdfrwt beam="1">  1       -2 0.26020064E-04 0.41195884E+02</pdfrwt>
<totfact> 0.11307977E+06</totfact>
</mgrwt>
</event>
<event>
 4    1  0.4834411E-002  0.1254564E+03  0.7818608E-02  0.1234358E+00
          2   -1    0    0    0  501  0.00000000000E+00  0.00000000000E+00  0.23463331076E+02  0.23463331215E+02  0.25500000000E-02 0. -1.
         -2   -1    0    0  501    0 -0.00000000000E+00 -0.00000000000E+00 -0.16770120081E+03  0.16770120083E+03  0.25500000000E-02 0. -1.
          2    1    1    2    0  502  0.32151547461E+02  0.12765958142E+02  0.76147796696E+01  0.35421413966E+02  0.25500000000E-02 0. -1.
         -2    1    1    2  502    0 -0.32151547461E+02 -0.12765958142E+02 -0.15185264940E+03  0.15574311808E+03  0.25500000000E-02 0. -1.
<mgrwt>
<rscale>  0 0.12545643E+03</rscale>
<asrwt>0</asrwt>
<pdfrwt beam="1">  1        2 0.36097434E-02 0.12545643E+03</pdfrwt>
<pdfrwt beam="2">  1       -2 0.25800184E-01 0.12545643E+03</pdfrwt>
<totfact> 0.29754867E+04</totfact>
</mgrwt>
</event>
<event>
 4    1  0.4834411E-002  0.7850107E+02  0.7818608E-02  0.1333360E+00
          2   -1    0    0    0  501  0.00000000000E+00  0.00000000000E+00  0.23123635111E+02  0.23123635251E+02  0.25500000000E-02 0.  1.
         -2   -1    0    0  501    0 -0.00000000000E+00 -0.00000000000E+00 -0.66624662244E+02  0.66624662293E+02  0.25500000000E-02 0.  1.
          2    1    1    2    0  502  0.13904968764E+01  0.27682167168E+02  0.10022831597E+02  0.29473598701E+02  0.25500000000E-02 0. -1.
         -2    1    1    2  502    0 -0.13904968764E+01 -0.27682167168E+02 -0.53523858731E+02  0.60274698843E+02  0.25500000000E-02 0. -1.
<mgrwt>
<rscale>  0 0.78501067E+02</rscale>
<asrwt>0</asrwt>
<pdfrwt beam="1">  1        2 0.35574824E-02 0.78501067E+02</pdfrwt>
<pdfrwt beam="2">  1       -2 0.10249948E-01 0.78501067E+02</pdfrwt>
<totfact> 0.12869676E+05</totfact>
</mgrwt>
</event>
<event>
 4    1  0.4834411E-002  0.4399887E+02  0.7818608E-02  0.1480690E+00
         -2   -1    0    0  501    0 -0.00000000000E+00  0.00000000000E+00  0.10272865286E+01  0.10272896935E+01  0.25500000000E-02 0. -1.
          2   -1    0    0    0  501  0.00000000000E+00 -0.00000000000E+00 -0.47111920218E+03  0.47111920219E+03  0.25500000000E-02 0. -1.
          2    1    1    2    0  502  0.39788036017E+00 -0.20370862167E+02 -0.32408302859E+03  0.32472286608E+03  0.25500000000E-02 0.  1.
         -2    1    1    2  502    0 -0.39788036017E+00  0.20370862167E+02 -0.14600888707E+03  0.14742362580E+03  0.25500000000E-02 0.  1.
<mgrwt>
<rscale>  0 0.43998871E+02</rscale>
<asrwt>0</asrwt>
<pdfrwt beam="2">  1        2 0.72479705E-01 0.43998871E+02</pdfrwt>
<pdfrwt beam="1">  1       -2 0.15804470E-03 0.43998871E+02</pdfrwt>
<totfact> 0.13496066E+06</totfact>
</mgrwt>
</event>
<event>
 4    1  0.4834411E-002  0.5588341E+02  0.7818608E-02  0.1415967E+00
         -2   -1    0    0  501    0 -0.00000000000E+00  0.00000000000E+00  0.14543501232E+01  0.14543523587E+01  0.25500000000E-02 0.  1.
          2   -1    0    0    0  501  0.00000000000E+00 -0.00000000000E+00 -0.53682967708E+03  0.53682967708E+03  0.25500000000E-02 0.  1.
          2    1    1    2    0  502 -0.13677460636E+02  0.22759267751E+02 -0.35148380912E+03  0.35248535470E+03  0.25500000000E-02 0.  1.
         -2    1    1    2  502    0  0.13677460636E+02 -0.22759267751E+02 -0.18389151783E+03  0.18579867474E+03  0.25500000000E-02 0.  1.
<mgrwt>
<rscale>  0 0.55883411E+02</rscale>
<asrwt>0</asrwt>
<pdfrwt beam="2">  1        2 0.82589023E-01 0.55883411E+02</pdfrwt>
<pdfrwt beam="1">  1       -2 0.22374677E-03 0.55883411E+02</pdfrwt>
<totfact> 0.77794077E+05</totfact>
</mgrwt>
</event>
<event>
 4    1  0.4834411E-002  0.6423282E+02  0.7818608E-02  0.1380881E+00
          2   -1    0    0    0  501  0.00000000000E+00  0.00000000000E+00  0.10824638984E+02  0.10824639285E+02  0.25500000000E-02 0. -1.
         -2   -1    0    0  501    0 -0.00000000000E+00 -0.00000000000E+00 -0.95288519774E+02  0.95288519808E+02  0.25500000000E-02 0. -1.
          2    1    1    2    0  502  0.77487842828E+01 -0.31049811292E+02 -0.37759481100E+02  0.49496594414E+02  0.25500000000E-02 0.  1.
         -2    1    1    2  502    0 -0.77487842828E+01  0.31049811292E+02 -0.46704399690E+02  0.56616564679E+02  0.25500000000E-02 0.  1.
<mgrwt>
<rscale>  0 0.64232822E+02</rscale>
<asrwt>0</asrwt>
<pdfrwt beam="1">  1        2 0.16653292E-02 0.64232822E+02</pdfrwt>
<pdfrwt beam="2">  1       -2 0.14659772E-01 0.64232822E+02</pdfrwt>
<totfact> 0.19307155E+05</totfact>
</mgrwt>
</event>
<event>
 4    1  0.4834411E-002  0.5147554E+02  0.7818608E-02  0.1437542E+00
         -2   -1    0    0  501    0 -0.00000000000E+00  0.00000000000E+00  0.49509664440E+02  0.49509664506E+02  0.25500000000E-02 0. -1.
          2   -1    0    0    0  501  0.00000000000E+00 -0.00000000000E+00 -0.13379866907E+02  0.13379867150E+02  0.25500000000E-02 0. -1.
          2    1    1    2    0  502  0.14512470992E+02  0.20228604869E+02  0.26041298163E+02  0.36027177044E+02  0.25500000000E-02 0.  1.
         -2    1    1    2  502    0 -0.14512470992E+02 -0.20228604869E+02  0.10088499369E+02  0.26862354612E+02  0.25500000000E-02 0.  1.
<mgrwt>
<rscale>  0 0.51475537E+02</rscale>
<asrwt>0</asrwt>
<pdfrwt beam="2">  1        2 0.20584411E-02 0.51475537E+02</pdfrwt>
<pdfrwt beam="1">  1       -2 0.76168715E-02 0.51475537E+02</pdfrwt>
<totfact> 0.38089294E+05</totfact>
</mgrwt>
</event>
<event>
 4    1  0.4834411E-002  0.5394037E+02  0.7818608E-02  0.1425177E+00
          2   -1    0    0    0  501  0.00000000000E+00  0.00000000000E+00  0.72315036600E+03  0.72315036600E+03  0.25500000000E-02 0.  1.
         -2   -1    0    0  501    0 -0.00000000000E+00 -0.00000000000E+00 -0.10058622189E+01  0.10058654512E+01  0.25500000000E-02 0.  1.
          2    1    1    2    0  502 -0.17140487799E+02  0.20821806486E+02  0.36397809725E+03  0.36497588856E+03  0.25500000000E-02 0. -1.
         -2    1    1    2  502    0  0.17140487799E+02 -0.20821806486E+02  0.35816640653E+03  0.35918034289E+03  0.25500000000E-02 0. -1.
<mgrwt>
<rscale>  0 0.53940367E+02</rscale>
<asrwt>0</asrwt>
<pdfrwt beam="1">  1        2 0.11125353E+00 0.53940367E+02</pdfrwt>
<pdfrwt beam="2">  1       -2 0.15474880E-03 0.53940367E+02</pdfrwt>
<totfact> 0.91819809E+05</totfact>
</mgrwt>
</event>
<event>
 4    1  0.4834411E-002  0.5261554E+02  0.7818608E-02  0.1431724E+00
         -2   -1    0    0  501    0 -0.00000000000E+00  0.00000000000E+00  0.24135231476E+00  0.24136578535E+00  0.25500000000E-02 0.  1.
          2   -1    0    0    0  501  0.00000000000E+00 -0.00000000000E+00 -0.28675066795E+04  0.28675066795E+04  0.25500000000E-02 0.  1.
          2    1    1    2    0  502  0.67235208346E+01  0.25163406908E+02 -0.16353403068E+04  0.16355477131E+04  0.25500000000E-02 0.  1.
         -2    1    1    2  502    0 -0.67235208346E+01 -0.25163406908E+02 -0.12319250204E+04  0.12322003322E+04  0.25500000000E-02 0.  1.
<mgrwt>
<rscale>  0 0.52615537E+02</rscale>
<asrwt>0</asrwt>
<pdfrwt beam="2">  1        2 0.44112759E+00 0.52615537E+02</pdfrwt>
<pdfrwt beam="1">  1       -2 0.37134458E-04 0.52615537E+02</pdfrwt>
<totfact> 0.47550362E+05</totfact>
</mgrwt>
</event>
<event>
 4    1  0.4834411E-002  0.7768844E+02  0.7818608E-02  0.1335742E+00
          2   -1    0    0    0  501  0.00000000000E+00  0.00000000000E+00  0.80801110445E+03  0.80801110445E+03  0.25500000000E-02 0. -1.
         -2   -1    0    0  501    0 -0.00000000000E+00 -0.00000000000E+00 -0.18673911767E+01  0.18673929177E+01  0.25500000000E-02 0. -1.
          2    1    1    2    0  502 -0.18314222935E+02  0.31855890316E+02  0.27175997636E+03  0.27423291791E+03  0.25500000000E-02 0.  1.
         -2    1    1    2  502    0  0.18314222935E+02 -0.31855890316E+02  0.53438373691E+03  0.53564557945E+03  0.25500000000E-02 0.  1.
<mgrwt>
<rscale>  0 0.77688442E+02</rscale>
<asrwt>0</asrwt>
<pdfrwt beam="1">  1        2 0.12430968E+00 0.77688442E+02</pdfrwt>
<pdfrwt beam="2">  1       -2 0.28729044E-03 0.77688442E+02</pdfrwt>
<totfact> 0.37102382E+05</totfact>
</mgrwt>
</event>
<event>
 4    1  0.4834411E-002  0.4961180E+02  0.7818608E-02  0.1447447E+00
         -2   -1    0    0  501    0 -0.00000000000E+00  0.00000000000E+00  0.70971262994E+00  0.70971721100E+00  0.25500000000E-02 0.  1.
          2   -1    0    0    0  501  0.00000000000E+00 -0.00000000000E+00 -0.86701376520E+03  0.86701376521E+03  0.25500000000E-02 0.  1.
          2    1    1    2    0  502 -0.20324739593E+01 -0.24505976020E+02 -0.49025390067E+03  0.49087020783E+03  0.25500000000E-02 0. -1.
         -2    1    1    2  502    0  0.20324739593E+01  0.24505976020E+02 -0.37605015190E+03  0.37685327458E+03  0.25500000000E-02 0. -1.
<mgrwt>
<rscale>  0 0.49611797E+02</rscale>
<asrwt>0</asrwt>
<pdfrwt beam="2">  1        2 0.13338589E+00 0.49611797E+02</pdfrwt>
<pdfrwt beam="1">  1       -2 0.10918761E-03 0.49611797E+02</pdfrwt>
<totfact> 0.11655487E+06</totfact>
</mgrwt>
</event>
<event>
 4    1  0.4834411E-002  0.7409946E+02  0.7818608E-02  0.1346683E+00
          2   -1    0    0    0  501  0.00000000000E+00  0.00000000000E+00  0.61778052786E+03  0.61778052787E+03  0.25500000000E-02 0.  1.
         -2   -1    0    0  501    0 -0.00000000000E+00 -0.00000000000E+00 -0.22219572424E+01  0.22219587057E+01  0.25500000000E-02 0.  1.
          2    1    1    2    0  502 -0.16740807229E+02  0.24656462742E+02  0.12360911682E+03  0.12715112878E+03  0.25500000000E-02 0. -1.
         -2    1    1    2  502    0  0.16740807229E+02 -0.24656462742E+02  0.49194945380E+03  0.49285135779E+03  0.25500000000E-02 0. -1.
<mgrwt>
<rscale>  0 0.74099457E+02</rscale>
<asrwt>0</asrwt>
<pdfrwt beam="1">  1        2 0.95043232E-01 0.74099457E+02</pdfrwt>
<pdfrwt beam="2">  1       -2 0.34183942E-03 0.74099457E+02</pdfrwt>
<totfact> 0.39488564E+05</totfact>
</mgrwt>
</event>
<event>
 4    1  0.4834411E-002  0.7140244E+02  0.7818608E-02  0.1355388E+00
         -2   -1    0    0  501    0 -0.00000000000E+00  0.00000000000E+00  0.92267317944E+00  0.92267670316E+00  0.25500000000E-02 0.  1.
          2   -1    0    0    0  501  0.00000000000E+00 -0.00000000000E+00 -0.13813934633E+04  0.13813934633E+04  0.25500000000E-02 0.  1.
          2    1    1    2    0  502 -0.31226237909E+02 -0.97084694258E+01 -0.41288395786E+03  0.41417688851E+03  0.25500000000E-02 0.  1.
         -2    1    1    2  502    0  0.31226237909E+02  0.97084694258E+01 -0.96758683224E+03  0.96813925148E+03  0.25500000000E-02 0.  1.
<mgrwt>
<rscale>  0 0.71402441E+02</rscale>
<asrwt>0</asrwt>
<pdfrwt beam="2">  1        2 0.21252042E+00 0.71402441E+02</pdfrwt>
<pdfrwt beam="1">  1       -2 0.14195110E-03 0.71402441E+02</pdfrwt>
<totfact> 0.45770828E+05</totfact>
</mgrwt>
</event>
<event>
 4    1  0.4834411E-002  0.9507484E+02  0.7818608E-02  0.1291008E+00
         -2   -1    0    0  501    0 -0.00000000000E+00  0.00000000000E+00  0.76430532336E+02  0.76430532378E+02  0.25500000000E-02 0.  1.
          2   -1    0    0    0  501  0.00000000000E+00 -0.00000000000E+00 -0.29566802021E+02  0.29566802131E+02  0.25500000000E-02 0.  1.
          2    1    1    2    0  502  0.26743943156E+02  0.34493694592E+02  0.24331684310E+01  0.43714686059E+02  0.25500000000E-02 0.  1.
         -2    1    1    2  502    0 -0.26743943156E+02 -0.34493694592E+02  0.44430561884E+02  0.62282648450E+02  0.25500000000E-02 0.  1.
<mgrwt>
<rscale>  0 0.95074843E+02</rscale>
<asrwt>0</asrwt>
<pdfrwt beam="2">  1        2 0.45487389E-02 0.95074843E+02</pdfrwt>
<pdfrwt beam="1">  1       -2 0.11758543E-01 0.95074843E+02</pdfrwt>
<totfact> 0.77754435E+04</totfact>
</mgrwt>
</event>
<event>
 4    1  0.4834411E-002  0.8204536E+02  0.7818608E-02  0.1323345E+00
         -2   -1    0    0  501    0 -0.00000000000E+00  0.00000000000E+00  0.58251637541E+00  0.58252195677E+00  0.25500000000E-02 0.  1.
          2   -1    0    0    0  501  0.00000000000E+00 -0.00000000000E+00 -0.28889357927E+04  0.28889357927E+04  0.25500000000E-02 0.  1.
          2    1    1    2    0  502  0.35124684323E+02  0.21173652062E+02 -0.14755483392E+04  0.14761182094E+04  0.25500000000E-02 0. -1.
         -2    1    1    2  502    0 -0.35124684323E+02 -0.21173652062E+02 -0.14128049372E+04  0.14134001052E+04  0.25500000000E-02 0. -1.
<mgrwt>
<rscale>  0 0.82045365E+02</rscale>
<asrwt>0</asrwt>
<pdfrwt beam="2">  1        2 0.44444019E+00 0.82045365E+02</pdfrwt>
<pdfrwt beam="1">  1       -2 0.89620646E-04 0.82045365E+02</pdfrwt>
<totfact> 0.14791223E+05</totfact>
</mgrwt>
</event>
<event>
 4    1  0.4834411E-002  0.9117769E+02  0.7818608E-02  0.1300025E+00
         -2   -1    0    0  501    0 -0.00000000000E+00  0.00000000000E+00  0.12178750396E+03  0.12178750399E+03  0.25500000000E-02 0.  1.
          2   -1    0    0    0  501  0.00000000000E+00 -0.00000000000E+00 -0.17065320924E+02  0.17065321115E+02  0.25500000000E-02 0.  1.
          2    1    1    2    0  502 -0.34274422989E+02  0.29173753171E+02  0.41326881584E+02  0.61104460502E+02  0.25500000000E-02 0.  1.
         -2    1    1    2  502    0  0.34274422989E+02 -0.29173753171E+02  0.63395301453E+02  0.77748364601E+02  0.25500000000E-02 0.  1.
<mgrwt>
<rscale>  0 0.91177691E+02</rscale>
<asrwt>0</asrwt>
<pdfrwt beam="2">  1        2 0.26254341E-02 0.91177691E+02</pdfrwt>
<pdfrwt beam="1">  1       -2 0.18736538E-01 0.91177691E+02</pdfrwt>
<totfact> 0.75053993E+04</totfact>
</mgrwt>
</event>
<event>
 4    1  0.4834411E-002  0.4806836E+03  0.7818608E-02  0.1018947E+00
          2   -1    0    0    0  501  0.00000000000E+00  0.00000000000E+00  0.13166160454E+03  0.13166160457E+03  0.25500000000E-02 0. -1.
         -2   -1    0    0  501    0 -0.00000000000E+00 -0.00000000000E+00 -0.43873221208E+03  0.43873221209E+03  0.25500000000E-02 0. -1.
          2    1    1    2    0  502 -0.14798581991E+03 -0.16775527075E+03 -0.49256525021E+02  0.22905859299E+03  0.25500000000E-02 0. -1.
         -2    1    1    2  502    0  0.14798581991E+03  0.16775527075E+03 -0.25781408252E+03  0.34133522366E+03  0.25500000000E-02 0. -1.
<mgrwt>
<rscale>  0 0.48068363E+03</rscale>
<asrwt>0</asrwt>
<pdfrwt beam="1">  1        2 0.20255632E-01 0.48068363E+03</pdfrwt>
<pdfrwt beam="2">  1       -2 0.67497263E-01 0.48068363E+03</pdfrwt>
<totfact> 0.56751112E+02</totfact>
</mgrwt>
</event>
<event>
 4    1  0.4834411E-002  0.1372025E+03  0.7818608E-02  0.1217143E+00
         -2   -1    0    0  501    0 -0.00000000000E+00  0.00000000000E+00  0.21784009631E+02  0.21784009780E+02  0.25500000000E-02 0. -1.
          2   -1    0    0    0  501  0.00000000000E+00 -0.00000000000E+00 -0.21603619174E+03  0.21603619176E+03  0.25500000000E-02 0. -1.
          2    1    1    2    0  502 -0.25692272817E+02 -0.49771344816E+02 -0.28470175736E+02  0.62831763943E+02  0.25500000000E-02 0. -1.
         -2    1    1    2  502    0  0.25692272817E+02  0.49771344816E+02 -0.16578200637E+03  0.17498843759E+03  0.25500000000E-02 0. -1.
<mgrwt>
<rscale>  0 0.13720254E+03</rscale>
<asrwt>0</asrwt>
<pdfrwt beam="2">  1        2 0.33236336E-01 0.13720254E+03</pdfrwt>
<pdfrwt beam="1">  1       -2 0.33513863E-02 0.13720254E+03</pdfrwt>
<totfact> 0.51536376E+04</totfact>
</mgrwt>
</event>
<event>
 4    1  0.4834411E-002  0.4752972E+02  0.7818608E-02  0.1459140E+00
          2   -1    0    0    0  501  0.00000000000E+00  0.00000000000E+00  0.51605769384E+00  0.51606399397E+00  0.25500000000E-02 0.  1.
         -2   -1    0    0  501    0 -0.00000000000E+00 -0.00000000000E+00 -0.10943836166E+04  0.10943836166E+04  0.25500000000E-02 0.  1.
          2    1    1    2    0  502 -0.71764427515E+01 -0.21619054044E+02 -0.39089292928E+03  0.39155608410E+03  0.25500000000E-02 0. -1.
         -2    1    1    2  502    0  0.71764427515E+01  0.21619054044E+02 -0.70297462958E+03  0.70334359645E+03  0.25500000000E-02 0. -1.
<mgrwt>
<rscale>  0 0.47529719E+02</rscale>
<asrwt>0</asrwt>
<pdfrwt beam="1">  1        2 0.79394852E-04 0.47529719E+02</pdfrwt>
<pdfrwt beam="2">  1       -2 0.16836485E+00 0.47529719E+02</pdfrwt>
<totfact> 0.86715851E+04</totfact>
</mgrwt>
</event>
<event>
 4    1  0.4834411E-002  0.6382076E+02  0.7818608E-02  0.1382463E+00
         -2   -1    0    0  501    0 -0.00000000000E+00  0.00000000000E+00  0.81954059263E+02  0.81954059303E+02  0.25500000000E-02 0. -1.
          2   -1    0    0    0  501  0.00000000000E+00 -0.00000000000E+00 -0.12424917486E+02  0.12424917748E+02  0.25500000000E-02 0. -1.
          2    1    1    2    0  502 -0.25197095453E+02 -0.70489752784E+01  0.77507904136E+01  0.27288393692E+02  0.25500000000E-02 0.  1.
         -2    1    1    2  502    0  0.25197095453E+02  0.70489752784E+01  0.61778351364E+02  0.67090583359E+02  0.25500000000E-02 0.  1.
<mgrwt>
<rscale>  0 0.63820763E+02</rscale>
<asrwt>0</asrwt>
<pdfrwt beam="2">  1        2 0.19115258E-02 0.63820763E+02</pdfrwt>
<pdfrwt beam="1">  1       -2 0.12608317E-01 0.63820763E+02</pdfrwt>
<totfact> 0.20364423E+05</totfact>
</mgrwt>
</event>
<event>
 4    1  0.4834411E-002  0.4506091E+02  0.7818608E-02  0.1473962E+00
          2   -1    0    0    0  501  0.00000000000E+00  0.00000000000E+00  0.32157833470E+03  0.32157833471E+03  0.25500000000E-02 0. -1.
         -2   -1    0    0  501    0 -0.00000000000E+00 -0.00000000000E+00 -0.15785301218E+01  0.15785321815E+01  0.25500000000E-02 0. -1.
          2    1    1    2    0  502  0.45170582334E+01  0.22072801342E+02  0.15931797826E+03  0.16090317144E+03  0.25500000000E-02 0.  1.
         -2    1    1    2  502    0 -0.45170582334E+01 -0.22072801342E+02  0.16068182632E+03  0.16225369546E+03  0.25500000000E-02 0.  1.
<mgrwt>
<rscale>  0 0.45060911E+02</rscale>
<asrwt>0</asrwt>
<pdfrwt beam="1">  1        2 0.49473682E-01 0.45060911E+02</pdfrwt>
<pdfrwt beam="2">  1       -2 0.24285049E-03 0.45060911E+02</pdfrwt>
<totfact> 0.11206667E+06</totfact>
</mgrwt>
</event>
<event>
 4    1  0.4834411E-002  0.6012809E+02  0.7818608E-02  0.1397295E+00
          2   -1    0    0    0  501  0.00000000000E+00  0.00000000000E+00  0.32098836687E+01  0.32098846816E+01  0.25500000000E-02 0.  1.
         -2   -1    0    0  501    0 -0.00000000000E+00 -0.00000000000E+00 -0.28158237462E+03  0.28158237463E+03  0.25500000000E-02 0.  1.
          2    1    1    2    0  502 -0.99472151604E+01  0.26211995151E+02 -0.87772339456E+02  0.92141192522E+02  0.25500000000E-02 0.  1.
         -2    1    1    2  502    0  0.99472151604E+01 -0.26211995151E+02 -0.19060015149E+03  0.19265106679E+03  0.25500000000E-02 0.  1.
<mgrwt>
<rscale>  0 0.60128090E+02</rscale>
<asrwt>0</asrwt>
<pdfrwt beam="1">  1        2 0.49382856E-03 0.60128090E+02</pdfrwt>
<pdfrwt beam="2">  1       -2 0.43320346E-01 0.60128090E+02</pdfrwt>
<totfact> 0.15205719E+05</totfact>
</mgrwt>
</event>
<event>
 4    1  0.4834411E-002  0.5086017E+02  0.7818608E-02  0.1440756E+00
         -2   -1    0    0  501    0 -0.00000000000E+00  0.00000000000E+00  0.16964915394E+03  0.16964915395E+03  0.25500000000E-02 0. -1.
          2   -1    0    0    0  501  0.00000000000E+00 -0.00000000000E+00 -0.38119207673E+01  0.38119216202E+01  0.25500000000E-02 0. -1.
          2    1    1    2    0  502 -0.15647090649E+02 -0.16725421907E+02  0.45229660658E+02  0.50698061042E+02  0.25500000000E-02 0. -1.
         -2    1    1    2  502    0  0.15647090649E+02  0.16725421907E+02  0.12060757251E+03  0.12276301453E+03  0.25500000000E-02 0. -1.
<mgrwt>
<rscale>  0 0.50860169E+02</rscale>
<asrwt>0</asrwt>
<pdfrwt beam="2">  1        2 0.58644933E-03 0.50860169E+02</pdfrwt>
<pdfrwt beam="1">  1       -2 0.26099874E-01 0.50860169E+02</pdfrwt>
<totfact> 0.28821201E+05</totfact>
</mgrwt>
</event>
<event>
 4    1  0.4834411E-002  0.6507828E+02  0.7818608E-02  0.1377677E+00
         -2   -1    0    0  501    0 -0.00000000000E+00  0.00000000000E+00  0.61927328414E+00  0.61927853422E+00  0.25500000000E-02 0.  1.
          2   -1    0    0    0  501  0.00000000000E+00 -0.00000000000E+00 -0.17097318934E+04  0.17097318934E+04  0.25500000000E-02 0.  1.
          2    1    1    2    0  502 -0.27217306024E+02 -0.51121450041E+01 -0.40555112159E+03  0.40649554487E+03  0.25500000000E-02 0. -1.
         -2    1    1    2  502    0  0.27217306024E+02  0.51121450041E+01 -0.13035614985E+04  0.13038556271E+04  0.25500000000E-02 0. -1.
<mgrwt>
<rscale>  0 0.65078284E+02</rscale>
<asrwt>0</asrwt>
<pdfrwt beam="2">  1        2 0.26303190E+00 0.65078284E+02</pdfrwt>
<pdfrwt beam="1">  1       -2 0.95274586E-04 0.65078284E+02</pdfrwt>
<totfact> 0.53141148E+05</totfact>
</mgrwt>
</event>
<event>
 4    1  0.4834411E-002  0.4824792E+02  0.7818608E-02  0.1455028E+00
          2   -1    0    0    0  501  0.00000000000E+00  0.00000000000E+00  0.58089961393E+03  0.58089961393E+03  0.25500000000E-02 0.  1.
         -2   -1    0    0  501    0 -0.00000000000E+00 -0.00000000000E+00 -0.10018331727E+01  0.10018364180E+01  0.25500000000E-02 0.  1.
          2    1    1    2    0  502  0.17683969121E+02  0.15845615648E+02  0.23855416816E+03  0.23973297114E+03  0.25500000000E-02 0. -1.
         -2    1    1    2  502    0 -0.17683969121E+02 -0.15845615648E+02  0.34134361260E+03  0.34216847921E+03  0.25500000000E-02 0. -1.
<mgrwt>
<rscale>  0 0.48247920E+02</rscale>
<asrwt>0</asrwt>
<pdfrwt beam="1">  1        2 0.89369200E-01 0.48247920E+02</pdfrwt>
<pdfrwt beam="2">  1       -2 0.15412838E-03 0.48247920E+02</pdfrwt>
<totfact> 0.11463076E+06</totfact>
</mgrwt>
</event>
<event>
 4    1  0.4834411E-002  0.5133781E+02  0.7818608E-02  0.1438256E+00
          2   -1    0    0    0  501  0.00000000000E+00  0.00000000000E+00  0.60637537556E+02  0.60637537610E+02  0.25500000000E-02 0.  1.
         -2   -1    0    0  501    0 -0.00000000000E+00 -0.00000000000E+00 -0.10866087564E+02  0.10866087863E+02  0.25500000000E-02 0.  1.
          2    1    1    2    0  502 -0.48867978225E+01 -0.24510843763E+02  0.16736851341E+02  0.30079635208E+02  0.25500000000E-02 0.  1.
         -2    1    1    2  502    0  0.48867978225E+01  0.24510843763E+02  0.33034598651E+02  0.41423990265E+02  0.25500000000E-02 0.  1.
<mgrwt>
<rscale>  0 0.51337815E+02</rscale>
<asrwt>0</asrwt>
<pdfrwt beam="1">  1        2 0.93288522E-02 0.51337815E+02</pdfrwt>
<pdfrwt beam="2">  1       -2 0.16717058E-02 0.51337815E+02</pdfrwt>
<totfact> 0.49809907E+05</totfact>
</mgrwt>
</event>
<event>
 4    1  0.4834411E-002  0.4779271E+02  0.7818608E-02  0.1457624E+00
          2   -1    0    0    0  501  0.00000000000E+00  0.00000000000E+00  0.44128695937E+03  0.44128695938E+03  0.25500000000E-02 0.  1.
         -2   -1    0    0  501    0 -0.00000000000E+00 -0.00000000000E+00 -0.12940224224E+01  0.12940249349E+01  0.25500000000E-02 0.  1.
          2    1    1    2    0  502  0.23449177417E+02 -0.40663705361E+01  0.23993647563E+03  0.24111389764E+03  0.25500000000E-02 0. -1.
         -2    1    1    2  502    0 -0.23449177417E+02  0.40663705361E+01  0.20005646132E+03  0.20146708667E+03  0.25500000000E-02 0. -1.
<mgrwt>
<rscale>  0 0.47792710E+02</rscale>
<asrwt>0</asrwt>
<pdfrwt beam="1">  1        2 0.67890263E-01 0.47792710E+02</pdfrwt>
<pdfrwt beam="2">  1       -2 0.19908068E-03 0.47792710E+02</pdfrwt>
<totfact> 0.10791266E+06</totfact>
</mgrwt>
</event>
<event>
 4    1  0.4834411E-002  0.7573325E+02  0.7818608E-02  0.1341615E+00
          2   -1    0    0    0  501  0.00000000000E+00  0.00000000000E+00  0.15497690096E+03  0.15497690098E+03  0.25500000000E-02 0. -1.
         -2   -1    0    0  501    0 -0.00000000000E+00 -0.00000000000E+00 -0.92522264231E+01  0.92522267745E+01  0.25500000000E-02 0. -1.
          2    1    1    2    0  502  0.28840778247E+02 -0.19238679851E+02  0.10588970569E+03  0.11142058638E+03  0.25500000000E-02 0.  1.
         -2    1    1    2  502    0 -0.28840778247E+02  0.19238679851E+02  0.39834968847E+02  0.52808541372E+02  0.25500000000E-02 0.  1.
<mgrwt>
<rscale>  0 0.75733253E+02</rscale>
<asrwt>0</asrwt>
<pdfrwt beam="1">  1        2 0.23842599E-01 0.75733253E+02</pdfrwt>
<pdfrwt beam="2">  1       -2 0.14234196E-02 0.75733253E+02</pdfrwt>
<totfact> 0.23243000E+05</totfact>
</mgrwt>
</event>
<event>
 4    1  0.4834411E-002  0.5398698E+02  0.7818608E-02  0.1424951E+00
         -2   -1    0    0  501    0 -0.00000000000E+00  0.00000000000E+00  0.44005342601E+03  0.44005342602E+03  0.25500000000E-02 0.  1.
          2   -1    0    0    0  501  0.00000000000E+00 -0.00000000000E+00 -0.16558172591E+01  0.16558192227E+01  0.25500000000E-02 0.  1.
          2    1    1    2    0  502  0.25416739099E+02 -0.90807803730E+01  0.22264378689E+03  0.22427377699E+03  0.25500000000E-02 0.  1.
         -2    1    1    2  502    0 -0.25416739099E+02  0.90807803730E+01  0.21575382186E+03  0.21743546825E+03  0.25500000000E-02 0.  1.
<mgrwt>
<rscale>  0 0.53986980E+02</rscale>
<asrwt>0</asrwt>
<pdfrwt beam="2">  1        2 0.25474091E-03 0.53986980E+02</pdfrwt>
<pdfrwt beam="1">  1       -2 0.67700623E-01 0.53986980E+02</pdfrwt>
<totfact> 0.15090713E+05</totfact>
</mgrwt>
</event>
<event>
 4    1  0.4834411E-002  0.4711329E+02  0.7818608E-02  0.1461564E+00
         -2   -1    0    0  501    0 -0.00000000000E+00  0.00000000000E+00  0.11193000687E+02  0.11193000977E+02  0.25500000000E-02 0.  1.
          2   -1    0    0    0  501  0.00000000000E+00 -0.00000000000E+00 -0.49577010124E+02  0.49577010190E+02  0.25500000000E-02 0.  1.
          2    1    1    2    0  502  0.58060516915E+01 -0.20287121803E+02 -0.32697993010E+02  0.38915759027E+02  0.25500000000E-02 0. -1.
         -2    1    1    2  502    0 -0.58060516915E+01  0.20287121803E+02 -0.56860164281E+01  0.21854252140E+02  0.25500000000E-02 0. -1.
<mgrwt>
<rscale>  0 0.47113290E+02</rscale>
<asrwt>0</asrwt>
<pdfrwt beam="2">  1        2 0.76272322E-02 0.47113290E+02</pdfrwt>
<pdfrwt beam="1">  1       -2 0.17220002E-02 0.47113290E+02</pdfrwt>
<totfact> 0.59643460E+05</totfact>
</mgrwt>
</event>
<event>
 4    1  0.4834411E-002  0.4722381E+02  0.7818608E-02  0.1460918E+00
         -2   -1    0    0  501    0 -0.00000000000E+00  0.00000000000E+00  0.16629758841E+02  0.16629759036E+02  0.25500000000E-02 0.  1.
          2   -1    0    0    0  501  0.00000000000E+00 -0.00000000000E+00 -0.33525565764E+02  0.33525565861E+02  0.25500000000E-02 0.  1.
          2    1    1    2    0  502 -0.11323647201E+02  0.18281853644E+02 -0.18803612866E+02  0.28566186688E+02  0.25500000000E-02 0. -1.
         -2    1    1    2  502    0  0.11323647201E+02 -0.18281853644E+02  0.19078059435E+01  0.21589138209E+02  0.25500000000E-02 0. -1.
<mgrwt>
<rscale>  0 0.47223811E+02</rscale>
<asrwt>0</asrwt>
<pdfrwt beam="2">  1        2 0.51577794E-02 0.47223811E+02</pdfrwt>
<pdfrwt beam="1">  1       -2 0.25584245E-02 0.47223811E+02</pdfrwt>
<totfact> 0.55436368E+05</totfact>
</mgrwt>
</event>
<event>
 4    1  0.4834411E-002  0.4614868E+02  0.7818608E-02  0.1467295E+00
          2   -1    0    0    0  501  0.00000000000E+00  0.00000000000E+00  0.10361276895E+02  0.10361277208E+02  0.25500000000E-02 0. -1.
         -2   -1    0    0  501    0 -0.00000000000E+00 -0.00000000000E+00 -0.51386053391E+02  0.51386053455E+02  0.25500000000E-02 0. -1.
          2    1    1    2    0  502  0.19049558173E+02 -0.64456716114E+01 -0.53749753273E+01  0.20816404958E+02  0.25500000000E-02 0.  1.
         -2    1    1    2  502    0 -0.19049558173E+02  0.64456716114E+01 -0.35649801170E+02  0.40930925705E+02  0.25500000000E-02 0.  1.
<mgrwt>
<rscale>  0 0.46148679E+02</rscale>
<asrwt>0</asrwt>
<pdfrwt beam="1">  1        2 0.15940427E-02 0.46148679E+02</pdfrwt>
<pdfrwt beam="2">  1       -2 0.79055466E-02 0.46148679E+02</pdfrwt>
<totfact> 0.49168454E+05</totfact>
</mgrwt>
</event>
<event>
 4    1  0.4834411E-002  0.5503702E+02  0.7818608E-02  0.1419924E+00
         -2   -1    0    0  501    0 -0.00000000000E+00  0.00000000000E+00  0.92035633172E+01  0.92035636705E+01  0.25500000000E-02 0. -1.
          2   -1    0    0    0  501  0.00000000000E+00 -0.00000000000E+00 -0.82279924864E+02  0.82279924903E+02  0.25500000000E-02 0. -1.
          2    1    1    2    0  502 -0.26755777572E+02 -0.59878377840E+01 -0.32624841752E+02  0.42615796844E+02  0.25500000000E-02 0. -1.
         -2    1    1    2  502    0  0.26755777572E+02  0.59878377840E+01 -0.40451519794E+02  0.48867691730E+02  0.25500000000E-02 0. -1.
<mgrwt>
<rscale>  0 0.55037024E+02</rscale>
<asrwt>0</asrwt>
<pdfrwt beam="2">  1        2 0.12658450E-01 0.55037024E+02</pdfrwt>
<pdfrwt beam="1">  1       -2 0.14159329E-02 0.55037024E+02</pdfrwt>
<totfact> 0.44609451E+05</totfact>
</mgrwt>
</event>
<event>
 4    1  0.4834411E-002  0.6097441E+02  0.7818608E-02  0.1393787E+00
          2   -1    0    0    0  501  0.00000000000E+00  0.00000000000E+00  0.77650473026E+03  0.77650473026E+03  0.25500000000E-02 0. -1.
         -2   -1    0    0  501    0 -0.00000000000E+00 -0.00000000000E+00 -0.11969903633E+01  0.11969930795E+01  0.25500000000E-02 0. -1.
          2    1    1    2    0  502  0.23893426232E+02  0.13934659995E+02  0.22411716562E+03  0.22581756907E+03  0.25500000000E-02 0. -1.
         -2    1    1    2  502    0 -0.23893426232E+02 -0.13934659995E+02  0.55119057427E+03  0.55188415428E+03  0.25500000000E-02 0. -1.
<mgrwt>
<rscale>  0 0.60974412E+02</rscale>
<asrwt>0</asrwt>
<pdfrwt beam="1">  1        2 0.11946208E+00 0.60974412E+02</pdfrwt>
<pdfrwt beam="2">  1       -2 0.18415287E-03 0.60974412E+02</pdfrwt>
<totfact> 0.68480951E+05</totfact>
</mgrwt>
</event>
<event>
 4    1  0.4834411E-002  0.4864596E+02  0.7818608E-02  0.1452785E+00
          2   -1    0    0    0  501  0.00000000000E+00  0.00000000000E+00  0.21691478246E+03  0.21691478247E+03  0.25500000000E-02 0.  1.
         -2   -1    0    0  501    0 -0.00000000000E+00 -0.00000000000E+00 -0.27273713444E+01  0.27273725365E+01  0.25500000000E-02 0.  1.
          2    1    1    2    0  502  0.23204616164E+02  0.72113993555E+01  0.11193309289E+03  0.11454028017E+03  0.25500000000E-02 0.  1.
         -2    1    1    2  502    0 -0.23204616164E+02 -0.72113993555E+01  0.10225431823E+03  0.10510187484E+03  0.25500000000E-02 0.  1.
<mgrwt>
<rscale>  0 0.48645957E+02</rscale>
<asrwt>0</asrwt>
<pdfrwt beam="1">  1        2 0.33371499E-01 0.48645957E+02</pdfrwt>
<pdfrwt beam="2">  1       -2 0.41959577E-03 0.48645957E+02</pdfrwt>
<totfact> 0.81010496E+05</totfact>
</mgrwt>
</event>
<event>
 4    1  0.4834411E-002  0.4184897E+02  0.7818608E-02  0.1495030E+00
          2   -1    0    0    0  501  0.00000000000E+00  0.00000000000E+00  0.41613082621E+03  0.41613082622E+03  0.25500000000E-02 0. -1.
         -2   -1    0    0  501    0 -0.00000000000E+00 -0.00000000000E+00 -0.10521532680E+01  0.10521563581E+01  0.25500000000E-02 0. -1.
          2    1    1    2    0  502  0.20663870255E+02 -0.25491954079E+01  0.18677143800E+03  0.18792834802E+03  0.25500000000E-02 0. -1.
         -2    1    1    2  502    0 -0.20663870255E+02  0.25491954079E+01  0.22830723495E+03  0.22925463456E+03  0.25500000000E-02 0. -1.
<mgrwt>
<rscale>  0 0.41848969E+02</rscale>
<asrwt>0</asrwt>
<pdfrwt beam="1">  1        2 0.64020263E-01 0.41848969E+02</pdfrwt>
<pdfrwt beam="2">  1       -2 0.16186963E-03 0.41848969E+02</pdfrwt>
<totfact> 0.14645066E+06</totfact>
</mgrwt>
</event>
<event>
 4    1  0.4834411E-002  0.8746102E+02  0.7818608E-02  0.1309119E+00
          2   -1    0    0    0  501  0.00000000000E+00  0.00000000000E+00  0.52914374092E+03  0.52914374093E+03  0.25500000000E-02 0. -1.
         -2   -1    0    0  501    0 -0.00000000000E+00 -0.00000000000E+00 -0.36140602368E+01  0.36140611364E+01  0.25500000000E-02 0. -1.
          2    1    1    2    0  502  0.79064759775E+01  0.21542137628E+02  0.36006820907E+02  0.42697391188E+02  0.25500000000E-02 0.  1.
         -2    1    1    2  502    0 -0.79064759775E+01 -0.21542137628E+02  0.48952285978E+03  0.49006041088E+03  0.25500000000E-02 0.  1.
<mgrwt>
<rscale>  0 0.87461022E+02</rscale>
<asrwt>0</asrwt>
<pdfrwt beam="1">  1        2 0.81406705E-01 0.87461022E+02</pdfrwt>
<pdfrwt beam="2">  1       -2 0.55600950E-03 0.87461022E+02</pdfrwt>
<totfact> 0.24489038E+05</totfact>
</mgrwt>
</event>
<event>
 4    1  0.4834411E-002  0.1004899E+03  0.7818608E-02  0.1279269E+00
         -2   -1    0    0  501    0 -0.00000000000E+00  0.00000000000E+00  0.58513617878E+01  0.58513623435E+01  0.25500000000E-02 0.  1.
          2   -1    0    0    0  501  0.00000000000E+00 -0.00000000000E+00 -0.43144717211E+03  0.43144717212E+03  0.25500000000E-02 0.  1.
          2    1    1    2    0  502 -0.20826327786E+02 -0.31145580173E+02 -0.35848264947E+03  0.36043528277E+03  0.25500000000E-02 0. -1.
         -2    1    1    2  502    0  0.20826327786E+02  0.31145580173E+02 -0.67113160854E+02  0.76863251686E+02  0.25500000000E-02 0. -1.
<mgrwt>
<rscale>  0 0.10048987E+03</rscale>
<asrwt>0</asrwt>
<pdfrwt beam="2">  1        2 0.66376463E-01 0.10048987E+03</pdfrwt>
<pdfrwt beam="1">  1       -2 0.90020989E-03 0.10048987E+03</pdfrwt>
<totfact> 0.15819891E+05</totfact>
</mgrwt>
</event>
<event>
 4    1  0.4834411E-002  0.4036496E+02  0.7818608E-02  0.1505543E+00
         -2   -1    0    0  501    0 -0.00000000000E+00  0.00000000000E+00  0.51239730033E+03  0.51239730033E+03  0.25500000000E-02 0. -1.
          2   -1    0    0    0  501  0.00000000000E+00 -0.00000000000E+00 -0.79495250117E+00  0.79495659102E+00  0.25500000000E-02 0. -1.
          2    1    1    2    0  502 -0.44362525239E+01  0.19580271566E+02  0.28205814779E+03  0.28277175621E+03  0.25500000000E-02 0.  1.
         -2    1    1    2  502    0  0.44362525239E+01 -0.19580271566E+02  0.22954420004E+03  0.23042050071E+03  0.25500000000E-02 0.  1.
<mgrwt>
<rscale>  0 0.40364963E+02</rscale>
<asrwt>0</asrwt>
<pdfrwt beam="2">  1        2 0.12230080E-03 0.40364963E+02</pdfrwt>
<pdfrwt beam="1">  1       -2 0.78830290E-01 0.40364963E+02</pdfrwt>
<totfact> 0.27330805E+05</totfact>
</mgrwt>
</event>
<event>
 4    1  0.4834411E-002  0.7301770E+02  0.7818608E-02  0.1350122E+00
          2   -1    0    0    0  501  0.00000000000E+00  0.00000000000E+00  0.47263828960E+03  0.47263828960E+03  0.25500000000E-02 0.  1.
         -2   -1    0    0  501    0 -0.00000000000E+00 -0.00000000000E+00 -0.28201182563E+01  0.28201194092E+01  0.25500000000E-02 0.  1.
          2    1    1    2    0  502  0.35637938799E+02  0.48094866153E+01  0.19387996712E+03  0.19718680356E+03  0.25500000000E-02 0. -1.
         -2    1    1    2  502    0 -0.35637938799E+02 -0.48094866153E+01  0.27593820422E+03  0.27827160545E+03  0.25500000000E-02 0. -1.
<mgrwt>
<rscale>  0 0.73017700E+02</rscale>
<asrwt>0</asrwt>
<pdfrwt beam="1">  1        2 0.72713570E-01 0.73017700E+02</pdfrwt>
<pdfrwt beam="2">  1       -2 0.43386451E-03 0.73017700E+02</pdfrwt>
<totfact> 0.37829966E+05</totfact>
</mgrwt>
</event>
<event>
 4    1  0.4834411E-002  0.4713575E+02  0.7818608E-02  0.1461433E+00
          2   -1    0    0    0  501  0.00000000000E+00  0.00000000000E+00  0.84342992510E+03  0.84342992511E+03  0.25500000000E-02 0. -1.
         -2   -1    0    0  501    0 -0.00000000000E+00 -0.00000000000E+00 -0.65855224645E+00  0.65855718340E+00  0.25500000000E-02 0. -1.
          2    1    1    2    0  502 -0.13609017467E+02  0.17841947339E+02  0.29237097028E+03  0.29323083860E+03  0.25500000000E-02 0. -1.
         -2    1    1    2  502    0  0.13609017467E+02 -0.17841947339E+02  0.55040040258E+03  0.55085764368E+03  0.25500000000E-02 0. -1.
<mgrwt>
<rscale>  0 0.47135751E+02</rscale>
<asrwt>0</asrwt>
<pdfrwt beam="1">  1        2 0.12975895E+00 0.47135751E+02</pdfrwt>
<pdfrwt beam="2">  1       -2 0.10131572E-03 0.47135751E+02</pdfrwt>
<totfact> 0.13168699E+06</totfact>
</mgrwt>
</event>
<event>
 4    1  0.4834411E-002  0.4179826E+02  0.7818608E-02  0.1495380E+00
         -2   -1    0    0  501    0 -0.00000000000E+00  0.00000000000E+00  0.91759257997E+00  0.91759612321E+00  0.25500000000E-02 0. -1.
          2   -1    0    0    0  501  0.00000000000E+00 -0.00000000000E+00 -0.47599870865E+03  0.47599870865E+03  0.25500000000E-02 0. -1.
          2    1    1    2    0  502  0.20160552853E+02 -0.38151192457E+01 -0.28285215448E+03  0.28359538841E+03  0.25500000000E-02 0.  1.
         -2    1    1    2  502    0 -0.20160552853E+02  0.38151192457E+01 -0.19222896159E+03  0.19332091637E+03  0.25500000000E-02 0.  1.
<mgrwt>
<rscale>  0 0.41798265E+02</rscale>
<asrwt>0</asrwt>
<pdfrwt beam="2">  1        2 0.73230374E-01 0.41798265E+02</pdfrwt>
<pdfrwt beam="1">  1       -2 0.14116874E-03 0.41798265E+02</pdfrwt>
<totfact> 0.15336542E+06</totfact>
</mgrwt>
</event>
<event>
 4    1  0.4834411E-002  0.8289012E+02  0.7818608E-02  0.1321044E+00
         -2   -1    0    0  501    0 -0.00000000000E+00  0.00000000000E+00  0.12908076056E+01  0.12908101243E+01  0.25500000000E-02 0. -1.
          2   -1    0    0    0  501  0.00000000000E+00 -0.00000000000E+00 -0.13307106577E+04  0.13307106577E+04  0.25500000000E-02 0. -1.
          2    1    1    2    0  502  0.50689925028E+01  0.20747169571E+02 -0.12354715108E+04  0.12356560985E+04  0.25500000000E-02 0.  1.
         -2    1    1    2  502    0 -0.50689925028E+01 -0.20747169571E+02 -0.93948339339E+02  0.96345369381E+02  0.25500000000E-02 0.  1.
<mgrwt>
<rscale>  0 0.82890123E+02</rscale>
<asrwt>0</asrwt>
<pdfrwt beam="2">  1        2 0.20472362E+00 0.82890123E+02</pdfrwt>
<pdfrwt beam="1">  1       -2 0.19858704E-03 0.82890123E+02</pdfrwt>
<totfact> 0.31388421E+05</totfact>
</mgrwt>
</event>
<event>
 4    1  0.4834411E-002  0.7136514E+02  0.7818608E-02  0.1355511E+00
          2   -1    0    0    0  501  0.00000000000E+00  0.00000000000E+00  0.54982527595E+02  0.54982527655E+02  0.25500000000E-02 0.  1.
         -2   -1    0    0  501    0 -0.00000000000E+00 -0.00000000000E+00 -0.23157279520E+02  0.23157279660E+02  0.25500000000E-02 0.  1.
          2    1    1    2    0  502  0.23014347802E+02  0.26215007834E+02  0.76927047217E+01  0.35722045755E+02  0.25500000000E-02 0.  1.
         -2    1    1    2  502    0 -0.23014347802E+02 -0.26215007834E+02  0.24132543354E+02  0.42417761560E+02  0.25500000000E-02 0.  1.
<mgrwt>
<rscale>  0 0.71365139E+02</rscale>
<asrwt>0</asrwt>
<pdfrwt beam="1">  1        2 0.84588504E-02 0.71365139E+02</pdfrwt>
<pdfrwt beam="2">  1       -2 0.35626584E-02 0.71365139E+02</pdfrwt>
<totfact> 0.20437966E+05</totfact>
</mgrwt>
</event>
<event>
 4    1  0.4834411E-002  0.5127665E+02  0.7818608E-02  0.1438575E+00
         -2   -1    0    0  501    0 -0.00000000000E+00  0.00000000000E+00  0.28368082214E+01  0.28368093675E+01  0.25500000000E-02 0. -1.
          2   -1    0    0    0  501  0.00000000000E+00 -0.00000000000E+00 -0.23171240575E+03  0.23171240577E+03  0.25500000000E-02 0. -1.
          2    1    1    2    0  502  0.22733969419E+02  0.64586674042E+01 -0.68976680892E+02  0.72913169342E+02  0.25500000000E-02 0. -1.
         -2    1    1    2  502    0 -0.22733969419E+02 -0.64586674042E+01 -0.15989891664E+03  0.16163604579E+03  0.25500000000E-02 0. -1.
<mgrwt>
<rscale>  0 0.51276653E+02</rscale>
<asrwt>0</asrwt>
<pdfrwt beam="2">  1        2 0.35648048E-01 0.51276653E+02</pdfrwt>
<pdfrwt beam="1">  1       -2 0.43643231E-03 0.51276653E+02</pdfrwt>
<totfact> 0.72630112E+05</totfact>
</mgrwt>
</event>
<event>
 4    1  0.4834411E-002  0.5202269E+02  0.7818608E-02  0.1434727E+00
          2   -1    0    0    0  501  0.00000000000E+00  0.00000000000E+00  0.65446908402E+03  0.65446908403E+03  0.25500000000E-02 0.  1.
         -2   -1    0    0  501    0 -0.00000000000E+00 -0.00000000000E+00 -0.10337983365E+01  0.10338014814E+01  0.25500000000E-02 0.  1.
          2    1    1    2    0  502  0.14641091665E+02 -0.19380213703E+02  0.44399942677E+03  0.44466329422E+03  0.25500000000E-02 0. -1.
         -2    1    1    2  502    0 -0.14641091665E+02  0.19380213703E+02  0.20943585892E+03  0.21083959129E+03  0.25500000000E-02 0. -1.
<mgrwt>
<rscale>  0 0.52022691E+02</rscale>
<asrwt>0</asrwt>
<pdfrwt beam="1">  1        2 0.10068734E+00 0.52022691E+02</pdfrwt>
<pdfrwt beam="2">  1       -2 0.15904648E-03 0.52022691E+02</pdfrwt>
<totfact> 0.98189459E+05</totfact>
</mgrwt>
</event>
<event>
 4    1  0.4834411E-002  0.5361248E+02  0.7818608E-02  0.1426777E+00
          2   -1    0    0    0  501  0.00000000000E+00  0.00000000000E+00  0.18900163058E+03  0.18900163060E+03  0.25500000000E-02 0.  1.
         -2   -1    0    0  501    0 -0.00000000000E+00 -0.00000000000E+00 -0.38019483457E+01  0.38019492009E+01  0.25500000000E-02 0.  1.
          2    1    1    2    0  502  0.78110371143E+01  0.24637873578E+02  0.11816542019E+03  0.12095909908E+03  0.25500000000E-02 0. -1.
         -2    1    1    2  502    0 -0.78110371143E+01 -0.24637873578E+02  0.67034262051E+02  0.71844480724E+02  0.25500000000E-02 0. -1.
<mgrwt>
<rscale>  0 0.53612481E+02</rscale>
<asrwt>0</asrwt>
<pdfrwt beam="1">  1        2 0.29077164E-01 0.53612481E+02</pdfrwt>
<pdfrwt beam="2">  1       -2 0.58491540E-03 0.53612481E+02</pdfrwt>
<totfact> 0.60622560E+05</totfact>
</mgrwt>
</event>
<event>
 4    1  0.4834411E-002  0.7153389E+02  0.7818608E-02  0.1354953E+00
          2   -1    0    0    0  501  0.00000000000E+00  0.00000000000E+00  0.24872710864E+04  0.24872710864E+04  0.25500000000E-02 0. -1.
         -2   -1    0    0  501    0 -0.00000000000E+00 -0.00000000000E+00 -0.51432535464E+00  0.51433167599E+00  0.25500000000E-02 0. -1.
          2    1    1    2    0  502  0.60702298644E+01  0.33167154046E+02  0.16583373751E+04  0.16586801252E+04  0.25500000000E-02 0.  1.
         -2    1    1    2  502    0 -0.60702298644E+01 -0.33167154046E+02  0.82841938589E+03  0.82910529291E+03  0.25500000000E-02 0.  1.
<mgrwt>
<rscale>  0 0.71533893E+02</rscale>
<asrwt>0</asrwt>
<pdfrwt beam="1">  1        2 0.38265007E+00 0.71533893E+02</pdfrwt>
<pdfrwt beam="2">  1       -2 0.79128916E-04 0.71533893E+02</pdfrwt>
<totfact> 0.28326817E+05</totfact>
</mgrwt>
</event>
<event>
 4    1  0.4834411E-002  0.4463084E+02  0.7818608E-02  0.1476659E+00
          2   -1    0    0    0  501  0.00000000000E+00  0.00000000000E+00  0.14372814934E+04  0.14372814934E+04  0.25500000000E-02 0.  1.
         -2   -1    0    0  501    0 -0.00000000000E+00 -0.00000000000E+00 -0.34646748143E+00  0.34647686530E+00  0.25500000000E-02 0.  1.
          2    1    1    2    0  502 -0.60661233878E+01 -0.21214057953E+02  0.61093726653E+03  0.61133556885E+03  0.25500000000E-02 0. -1.
         -2    1    1    2  502    0  0.60661233878E+01  0.21214057953E+02  0.82599775940E+03  0.82629240142E+03  0.25500000000E-02 0. -1.
<mgrwt>
<rscale>  0 0.44630843E+02</rscale>
<asrwt>0</asrwt>
<pdfrwt beam="1">  1        2 0.22111792E+00 0.44630843E+02</pdfrwt>
<pdfrwt beam="2">  1       -2 0.53303969E-04 0.44630843E+02</pdfrwt>
<totfact> 0.14702018E+06</totfact>
</mgrwt>
</event>
<event>
 4    1  0.4834411E-002  0.1055815E+03  0.7818608E-02  0.1268978E+00
         -2   -1    0    0  501    0 -0.00000000000E+00  0.00000000000E+00  0.71466355670E+01  0.71466360220E+01  0.25500000000E-02 0. -1.
          2   -1    0    0    0  501  0.00000000000E+00 -0.00000000000E+00 -0.38995443958E+03  0.38995443959E+03  0.25500000000E-02 0. -1.
          2    1    1    2    0  502 -0.26337518078E+02 -0.25252936481E+02 -0.33489251167E+03  0.33687441286E+03  0.25500000000E-02 0. -1.
         -2    1    1    2  502    0  0.26337518078E+02  0.25252936481E+02 -0.47915292344E+02  0.60226662753E+02  0.25500000000E-02 0. -1.
<mgrwt>
<rscale>  0 0.10558148E+03</rscale>
<asrwt>0</asrwt>
<pdfrwt beam="2">  1        2 0.59992974E-01 0.10558148E+03</pdfrwt>
<pdfrwt beam="1">  1       -2 0.10994827E-02 0.10558148E+03</pdfrwt>
<totfact> 0.13356276E+05</totfact>
</mgrwt>
</event>
<event>
 4    1  0.4834411E-002  0.5933284E+02  0.7818608E-02  0.1400653E+00
         -2   -1    0    0  501    0 -0.00000000000E+00  0.00000000000E+00  0.57096422239E+02  0.57096422296E+02  0.25500000000E-02 0.  1.
          2   -1    0    0    0  501  0.00000000000E+00 -0.00000000000E+00 -0.15414214862E+02  0.15414215073E+02  0.25500000000E-02 0.  1.
          2    1    1    2    0  502  0.24308220696E+02 -0.16537160374E+02  0.15994241471E+02  0.33469135534E+02  0.25500000000E-02 0. -1.
         -2    1    1    2  502    0 -0.24308220696E+02  0.16537160374E+02  0.25687965906E+02  0.39041501835E+02  0.25500000000E-02 0. -1.
<mgrwt>
<rscale>  0 0.59332842E+02</rscale>
<asrwt>0</asrwt>
<pdfrwt beam="2">  1        2 0.23714177E-02 0.59332842E+02</pdfrwt>
<pdfrwt beam="1">  1       -2 0.87840649E-02 0.59332842E+02</pdfrwt>
<totfact> 0.26319839E+05</totfact>
</mgrwt>
</event>
<event>
 4    1  0.4834411E-002  0.7682028E+02  0.7818608E-02  0.1338325E+00
         -2   -1    0    0  501    0 -0.00000000000E+00  0.00000000000E+00  0.54928307261E+00  0.54928899166E+00  0.25500000000E-02 0.  1.
          2   -1    0    0    0  501  0.00000000000E+00 -0.00000000000E+00 -0.26859211566E+04  0.26859211566E+04  0.25500000000E-02 0.  1.
          2    1    1    2    0  502 -0.35449231651E+01  0.29872933742E+02 -0.21778819832E+04  0.21780897345E+04  0.25500000000E-02 0. -1.
         -2    1    1    2  502    0  0.35449231651E+01 -0.29872933742E+02 -0.50748989029E+03  0.50838071109E+03  0.25500000000E-02 0. -1.
<mgrwt>
<rscale>  0 0.76820283E+02</rscale>
<asrwt>0</asrwt>
<pdfrwt beam="2">  1        2 0.41320812E+00 0.76820283E+02</pdfrwt>
<pdfrwt beam="1">  1       -2 0.84507694E-04 0.76820283E+02</pdfrwt>
<totfact> 0.20530648E+05</totfact>
</mgrwt>
</event>
<event>
 4    1  0.4834411E-002  0.2156186E+03  0.7818608E-02  0.1137192E+00
          2   -1    0    0    0  501  0.00000000000E+00  0.00000000000E+00  0.45471363308E+02  0.45471363379E+02  0.25500000000E-02 0. -1.
         -2   -1    0    0  501    0 -0.00000000000E+00 -0.00000000000E+00 -0.25560812134E+03  0.25560812135E+03  0.25500000000E-02 0. -1.
          2    1    1    2    0  502 -0.10633336506E+03 -0.12752373872E+02 -0.87771519695E+02  0.13846749525E+03  0.25500000000E-02 0. -1.
         -2    1    1    2  502    0  0.10633336506E+03  0.12752373872E+02 -0.12236523834E+03  0.16261198948E+03  0.25500000000E-02 0. -1.
<mgrwt>
<rscale>  0 0.21561864E+03</rscale>
<asrwt>0</asrwt>
<pdfrwt beam="1">  1        2 0.69955945E-02 0.21561864E+03</pdfrwt>
<pdfrwt beam="2">  1       -2 0.39324326E-01 0.21561864E+03</pdfrwt>
<totfact> 0.60916550E+03</totfact>
</mgrwt>
</event>
<event>
 4    1  0.4834411E-002  0.5406990E+02  0.7818608E-02  0.1424549E+00
          2   -1    0    0    0  501  0.00000000000E+00  0.00000000000E+00  0.12787747769E+01  0.12787773194E+01  0.25500000000E-02 0. -1.
         -2   -1    0    0  501    0 -0.00000000000E+00 -0.00000000000E+00 -0.57155313622E+03  0.57155313623E+03  0.25500000000E-02 0. -1.
          2    1    1    2    0  502  0.16006690903E+02 -0.21584842472E+02 -0.31650928889E+03  0.31764799628E+03  0.25500000000E-02 0.  1.
         -2    1    1    2  502    0 -0.16006690903E+02  0.21584842472E+02 -0.25376507255E+03  0.25518391727E+03  0.25500000000E-02 0.  1.
<mgrwt>
<rscale>  0 0.54069898E+02</rscale>
<asrwt>0</asrwt>
<pdfrwt beam="1">  1        2 0.19673523E-03 0.54069898E+02</pdfrwt>
<pdfrwt beam="2">  1       -2 0.87931048E-01 0.54069898E+02</pdfrwt>
<totfact> 0.12270107E+05</totfact>
</mgrwt>
</event>
<event>
 4    1  0.4834411E-002  0.1157267E+03  0.7818608E-02  0.1250318E+00
         -2   -1    0    0  501    0 -0.00000000000E+00  0.00000000000E+00  0.21118893491E+01  0.21118908886E+01  0.25500000000E-02 0. -1.
          2   -1    0    0    0  501  0.00000000000E+00 -0.00000000000E+00 -0.15853878911E+04  0.15853878911E+04  0.25500000000E-02 0. -1.
          2    1    1    2    0  502 -0.56400306937E+02 -0.12437403917E+02 -0.74317486087E+03  0.74541569441E+03  0.25500000000E-02 0. -1.
         -2    1    1    2  502    0  0.56400306937E+02  0.12437403917E+02 -0.84010114091E+03  0.84208408761E+03  0.25500000000E-02 0. -1.
<mgrwt>
<rscale>  0 0.11572666E+03</rscale>
<asrwt>0</asrwt>
<pdfrwt beam="2">  1        2 0.24390488E+00 0.11572666E+03</pdfrwt>
<pdfrwt beam="1">  1       -2 0.32490744E-03 0.11572666E+03</pdfrwt>
<totfact> 0.12208685E+05</totfact>
</mgrwt>
</event>
<event>
 4    1  0.4834411E-002  0.4542926E+02  0.7818608E-02  0.1471680E+00
          2   -1    0    0    0  501  0.00000000000E+00  0.00000000000E+00  0.22866113003E+04  0.22866113003E+04  0.25500000000E-02 0. -1.
         -2   -1    0    0  501    0 -0.00000000000E+00 -0.00000000000E+00 -0.22563430546E+00  0.22564871438E+00  0.25500000000E-02 0. -1.
          2    1    1    2    0  502 -0.14290946891E+02 -0.16182291922E+02  0.14986286963E+04  0.14987841963E+04  0.25500000000E-02 0. -1.
         -2    1    1    2  502    0  0.14290946891E+02  0.16182291922E+02  0.78775696970E+03  0.78805275271E+03  0.25500000000E-02 0. -1.
<mgrwt>
<rscale>  0 0.45429261E+02</rscale>
<asrwt>0</asrwt>
<pdfrwt beam="1">  1        2 0.35179733E+00 0.45429261E+02</pdfrwt>
<pdfrwt beam="2">  1       -2 0.34712996E-04 0.45429261E+02</pdfrwt>
<totfact> 0.10120037E+06</totfact>
</mgrwt>
</event>
<event>
 4    1  0.4834411E-002  0.6346992E+02  0.7818608E-02  0.1383821E+00
         -2   -1    0    0  501    0 -0.00000000000E+00  0.00000000000E+00  0.37006509041E+03  0.37006509042E+03  0.25500000000E-02 0. -1.
          2   -1    0    0    0  501  0.00000000000E+00 -0.00000000000E+00 -0.27214331289E+01  0.27214343236E+01  0.25500000000E-02 0. -1.
          2    1    1    2    0  502  0.29985741412E+02 -0.95706348841E+01  0.20743267347E+03  0.20980718712E+03  0.25500000000E-02 0. -1.
         -2    1    1    2  502    0 -0.29985741412E+02  0.95706348841E+01  0.15991098382E+03  0.16297933762E+03  0.25500000000E-02 0. -1.
<mgrwt>
<rscale>  0 0.63469918E+02</rscale>
<asrwt>0</asrwt>
<pdfrwt beam="2">  1        2 0.41868218E-03 0.63469918E+02</pdfrwt>
<pdfrwt beam="1">  1       -2 0.56933082E-01 0.63469918E+02</pdfrwt>
<totfact> 0.11324544E+05</totfact>
</mgrwt>
</event>
<event>
 4    1  0.4834411E-002  0.6257587E+02  0.7818608E-02  0.1387329E+00
          2   -1    0    0    0  501  0.00000000000E+00  0.00000000000E+00  0.91465955069E+00  0.91466310528E+00  0.25500000000E-02 0. -1.
         -2   -1    0    0  501    0 -0.00000000000E+00 -0.00000000000E+00 -0.10702703081E+04  0.10702703081E+04  0.25500000000E-02 0. -1.
          2    1    1    2    0  502  0.10816454323E+01 -0.30133163398E+02 -0.39170529167E+03  0.39286411521E+03  0.25500000000E-02 0. -1.
         -2    1    1    2  502    0 -0.10816454323E+01  0.30133163398E+02 -0.67765035685E+03  0.67832085597E+03  0.25500000000E-02 0. -1.
<mgrwt>
<rscale>  0 0.62575870E+02</rscale>
<asrwt>0</asrwt>
<pdfrwt beam="1">  1        2 0.14071798E-03 0.62575870E+02</pdfrwt>
<pdfrwt beam="2">  1       -2 0.16465597E+00 0.62575870E+02</pdfrwt>
<totfact> 0.45113996E+04</totfact>
</mgrwt>
</event>
<event>
 4    1  0.4834411E-002  0.4310421E+02  0.7818608E-02  0.1486536E+00
         -2   -1    0    0  501    0 -0.00000000000E+00  0.00000000000E+00  0.31442251293E+01  0.31442261633E+01  0.25500000000E-02 0.  1.
          2   -1    0    0    0  501  0.00000000000E+00 -0.00000000000E+00 -0.14772895874E+03  0.14772895876E+03  0.25500000000E-02 0.  1.
          2    1    1    2    0  502  0.16949520490E+02  0.10916287355E+02 -0.45626108019E+02  0.49881793411E+02  0.25500000000E-02 0. -1.
         -2    1    1    2  502    0 -0.16949520490E+02 -0.10916287355E+02 -0.98958625593E+02  0.10099139152E+03  0.25500000000E-02 0. -1.
<mgrwt>
<rscale>  0 0.43104208E+02</rscale>
<asrwt>0</asrwt>
<pdfrwt beam="2">  1        2 0.22727527E-01 0.43104208E+02</pdfrwt>
<pdfrwt beam="1">  1       -2 0.48372714E-03 0.43104208E+02</pdfrwt>
<totfact> 0.96758658E+05</totfact>
</mgrwt>
</event>
<event>
 4    1  0.4834411E-002  0.8653060E+02  0.7818608E-02  0.1311478E+00
         -2   -1    0    0  501    0 -0.00000000000E+00  0.00000000000E+00  0.29617626941E+02  0.29617627051E+02  0.25500000000E-02 0. -1.
          2   -1    0    0    0  501  0.00000000000E+00 -0.00000000000E+00 -0.63201757593E+02  0.63201757644E+02  0.25500000000E-02 0. -1.
          2    1    1    2    0  502 -0.26809468130E+02 -0.20126988681E+02  0.12546050049E+02  0.35794505627E+02  0.25500000000E-02 0. -1.
         -2    1    1    2  502    0  0.26809468130E+02  0.20126988681E+02 -0.46130180700E+02  0.57024879068E+02  0.25500000000E-02 0. -1.
<mgrwt>
<rscale>  0 0.86530598E+02</rscale>
<asrwt>0</asrwt>
<pdfrwt beam="2">  1        2 0.97233473E-02 0.86530598E+02</pdfrwt>
<pdfrwt beam="1">  1       -2 0.45565580E-02 0.86530598E+02</pdfrwt>
<totfact> 0.12451573E+05</totfact>
</mgrwt>
</event>
<event>
 4    1  0.4834411E-002  0.7003749E+02  0.7818608E-02  0.1359966E+00
          2   -1    0    0    0  501  0.00000000000E+00  0.00000000000E+00  0.10117577915E+02  0.10117578236E+02  0.25500000000E-02 0. -1.
         -2   -1    0    0  501    0 -0.00000000000E+00 -0.00000000000E+00 -0.12120612554E+03  0.12120612557E+03  0.25500000000E-02 0. -1.
          2    1    1    2    0  502  0.31500398660E+02 -0.15284651465E+02 -0.56754732363E+02  0.66685795625E+02  0.25500000000E-02 0. -1.
         -2    1    1    2  502    0 -0.31500398660E+02  0.15284651465E+02 -0.54333815264E+02  0.64637908179E+02  0.25500000000E-02 0. -1.
<mgrwt>
<rscale>  0 0.70037488E+02</rscale>
<asrwt>0</asrwt>
<pdfrwt beam="1">  1        2 0.15565506E-02 0.70037488E+02</pdfrwt>
<pdfrwt beam="2">  1       -2 0.18647095E-01 0.70037488E+02</pdfrwt>
<totfact> 0.14557924E+05</totfact>
</mgrwt>
</event>
<event>
 4    1  0.4834411E-002  0.1168826E+03  0.7818608E-02  0.1248330E+00
          2   -1    0    0    0  501  0.00000000000E+00  0.00000000000E+00  0.87212431283E+03  0.87212431283E+03  0.25500000000E-02 0.  1.
         -2   -1    0    0  501    0 -0.00000000000E+00 -0.00000000000E+00 -0.39161663143E+01  0.39161671445E+01  0.25500000000E-02 0.  1.
          2    1    1    2    0  502  0.17183584827E+02  0.48262125400E+02  0.64488366550E+03  0.64691533477E+03  0.25500000000E-02 0. -1.
         -2    1    1    2  502    0 -0.17183584827E+02 -0.48262125400E+02  0.22332448102E+03  0.22912514520E+03  0.25500000000E-02 0. -1.
<mgrwt>
<rscale>  0 0.11688258E+03</rscale>
<asrwt>0</asrwt>
<pdfrwt beam="1">  1        2 0.13417284E+00 0.11688258E+03</pdfrwt>
<pdfrwt beam="2">  1       -2 0.60248777E-03 0.11688258E+03</pdfrwt>
<totfact> 0.12736053E+05</totfact>
</mgrwt>
</event>
<event>
 4    1  0.4834411E-002  0.6930088E+02  0.7818608E-02  0.1362487E+00
          2   -1    0    0    0  501  0.00000000000E+00  0.00000000000E+00  0.19268866291E+04  0.19268866291E+04  0.25500000000E-02 0.  1.
         -2   -1    0    0  501    0 -0.00000000000E+00 -0.00000000000E+00 -0.62310246227E+00  0.62310768009E+00  0.25500000000E-02 0.  1.
          2    1    1    2    0  502  0.99546845242E+01 -0.26127683094E+02  0.15323957274E+04  0.15326507812E+04  0.25500000000E-02 0. -1.
         -2    1    1    2  502    0 -0.99546845242E+01  0.26127683094E+02  0.39386779921E+03  0.39485895562E+03  0.25500000000E-02 0. -1.
<mgrwt>
<rscale>  0 0.69300875E+02</rscale>
<asrwt>0</asrwt>
<pdfrwt beam="1">  1        2 0.29643606E+00 0.69300875E+02</pdfrwt>
<pdfrwt beam="2">  1       -2 0.95864916E-04 0.69300875E+02</pdfrwt>
<totfact> 0.41596225E+05</totfact>
</mgrwt>
</event>
<event>
 4    1  0.4834411E-002  0.5558970E+02  0.7818608E-02  0.1417331E+00
          2   -1    0    0    0  501  0.00000000000E+00  0.00000000000E+00  0.41514381091E+01  0.41514388923E+01  0.25500000000E-02 0.  1.
         -2   -1    0    0  501    0 -0.00000000000E+00 -0.00000000000E+00 -0.18609299175E+03  0.18609299177E+03  0.25500000000E-02 0.  1.
          2    1    1    2    0  502 -0.25230693662E+02 -0.27277820347E+00 -0.13086531697E+03  0.13327562982E+03  0.25500000000E-02 0.  1.
         -2    1    1    2  502    0  0.25230693662E+02  0.27277820347E+00 -0.51076236665E+02  0.56968800839E+02  0.25500000000E-02 0.  1.
<mgrwt>
<rscale>  0 0.55589697E+02</rscale>
<asrwt>0</asrwt>
<pdfrwt beam="1">  1        2 0.63868299E-03 0.55589697E+02</pdfrwt>
<pdfrwt beam="2">  1       -2 0.28629685E-01 0.55589697E+02</pdfrwt>
<totfact> 0.22343244E+05</totfact>
</mgrwt>
</event>
<event>
 4    1  0.4834411E-002  0.5941046E+02  0.7818608E-02  0.1400323E+00
          2   -1    0    0    0  501  0.00000000000E+00  0.00000000000E+00  0.33438544971E+03  0.33438544972E+03  0.25500000000E-02 0.  1.
         -2   -1    0    0  501    0 -0.00000000000E+00 -0.00000000000E+00 -0.26388725787E+01  0.26388738107E+01  0.25500000000E-02 0.  1.
          2    1    1    2    0  502 -0.18080219377E+02 -0.23491221263E+02  0.15500724549E+03  0.15781627917E+03  0.25500000000E-02 0. -1.
         -2    1    1    2  502    0  0.18080219377E+02  0.23491221263E+02  0.17673933164E+03  0.17920804436E+03  0.25500000000E-02 0. -1.
<mgrwt>
<rscale>  0 0.59410464E+02</rscale>
<asrwt>0</asrwt>
<pdfrwt beam="1">  1        2 0.51443937E-01 0.59410464E+02</pdfrwt>
<pdfrwt beam="2">  1       -2 0.40598032E-03 0.59410464E+02</pdfrwt>
<totfact> 0.56963464E+05</totfact>
</mgrwt>
</event>
<event>
 4    1  0.4834411E-002  0.7723511E+02  0.7818608E-02  0.1337086E+00
         -2   -1    0    0  501    0 -0.00000000000E+00  0.00000000000E+00  0.76333816243E+01  0.76333820503E+01  0.25500000000E-02 0.  1.
          2   -1    0    0    0  501  0.00000000000E+00 -0.00000000000E+00 -0.19536760729E+03  0.19536760731E+03  0.25500000000E-02 0.  1.
          2    1    1    2    0  502  0.66357432011E+01  0.35519259723E+02 -0.12968071370E+03  0.13462072058E+03  0.25500000000E-02 0.  1.
         -2    1    1    2  502    0 -0.66357432011E+01 -0.35519259723E+02 -0.58053511969E+02  0.68380268773E+02  0.25500000000E-02 0.  1.
<mgrwt>
<rscale>  0 0.77235110E+02</rscale>
<asrwt>0</asrwt>
<pdfrwt beam="2">  1        2 0.30056551E-01 0.77235110E+02</pdfrwt>
<pdfrwt beam="1">  1       -2 0.11743666E-02 0.77235110E+02</pdfrwt>
<totfact> 0.23874065E+05</totfact>
</mgrwt>
</event>
<event>
 4    1  0.4834411E-002  0.5842472E+02  0.7818608E-02  0.1404564E+00
          2   -1    0    0    0  501  0.00000000000E+00  0.00000000000E+00  0.62143602348E+01  0.62143607580E+01  0.25500000000E-02 0. -1.
         -2   -1    0    0  501    0 -0.00000000000E+00 -0.00000000000E+00 -0.13732098656E+03  0.13732098658E+03  0.25500000000E-02 0. -1.
          2    1    1    2    0  502 -0.74275501591E+01 -0.20735997670E+02 -0.18410970084E+02  0.28707384532E+02  0.25500000000E-02 0.  1.
         -2    1    1    2  502    0  0.74275501591E+01  0.20735997670E+02 -0.11269565624E+03  0.11482796281E+03  0.25500000000E-02 0.  1.
<mgrwt>
<rscale>  0 0.58424725E+02</rscale>
<asrwt>0</asrwt>
<pdfrwt beam="1">  1        2 0.95605556E-03 0.58424725E+02</pdfrwt>
<pdfrwt beam="2">  1       -2 0.21126303E-01 0.58424725E+02</pdfrwt>
<totfact> 0.21992196E+05</totfact>
</mgrwt>
</event>
<event>
 4    1  0.4834411E-002  0.6162425E+02  0.7818608E-02  0.1391139E+00
          2   -1    0    0    0  501  0.00000000000E+00  0.00000000000E+00  0.10426363166E+03  0.10426363169E+03  0.25500000000E-02 0. -1.
         -2   -1    0    0  501    0 -0.00000000000E+00 -0.00000000000E+00 -0.91056401574E+01  0.91056405144E+01  0.25500000000E-02 0. -1.
          2    1    1    2    0  502 -0.93209651858E+01  0.29346574063E+02  0.49664688281E+02  0.58435289593E+02  0.25500000000E-02 0.  1.
         -2    1    1    2  502    0  0.93209651858E+01 -0.29346574063E+02  0.45493303224E+02  0.54933982616E+02  0.25500000000E-02 0.  1.
<mgrwt>
<rscale>  0 0.61624253E+02</rscale>
<asrwt>0</asrwt>
<pdfrwt beam="1">  1        2 0.16040558E-01 0.61624253E+02</pdfrwt>
<pdfrwt beam="2">  1       -2 0.14008678E-02 0.61624253E+02</pdfrwt>
<totfact> 0.35405103E+05</totfact>
</mgrwt>
</event>
<event>
 4    1  0.4834411E-002  0.9243624E+02  0.7818608E-02  0.1297057E+00
          2   -1    0    0    0  501  0.00000000000E+00  0.00000000000E+00  0.27253577589E+03  0.27253577591E+03  0.25500000000E-02 0. -1.
         -2   -1    0    0  501    0 -0.00000000000E+00 -0.00000000000E+00 -0.78379228004E+01  0.78379232153E+01  0.25500000000E-02 0. -1.
          2    1    1    2    0  502 -0.20381178296E+02 -0.38250735354E+02  0.18103118083E+03  0.18614725252E+03  0.25500000000E-02 0.  1.
         -2    1    1    2  502    0  0.20381178296E+02  0.38250735354E+02  0.83666672269E+02  0.94226446600E+02  0.25500000000E-02 0.  1.
<mgrwt>
<rscale>  0 0.92436236E+02</rscale>
<asrwt>0</asrwt>
<pdfrwt beam="1">  1        2 0.41928578E-01 0.92436236E+02</pdfrwt>
<pdfrwt beam="2">  1       -2 0.12058344E-02 0.92436236E+02</pdfrwt>
<totfact> 0.16708982E+05</totfact>
</mgrwt>
</event>
<event>
 4    1  0.4834411E-002  0.7000534E+02  0.7818608E-02  0.1360075E+00
          2   -1    0    0    0  501  0.00000000000E+00  0.00000000000E+00  0.69937380206E+02  0.69937380252E+02  0.25500000000E-02 0. -1.
         -2   -1    0    0  501    0 -0.00000000000E+00 -0.00000000000E+00 -0.17518343071E+02  0.17518343257E+02  0.25500000000E-02 0. -1.
          2    1    1    2    0  502  0.29917024004E+02  0.14233935126E+02  0.12100275083E+02  0.35271091534E+02  0.25500000000E-02 0.  1.
         -2    1    1    2  502    0 -0.29917024004E+02 -0.14233935126E+02  0.40318762052E+02  0.52184631975E+02  0.25500000000E-02 0.  1.
<mgrwt>
<rscale>  0 0.70005344E+02</rscale>
<asrwt>0</asrwt>
<pdfrwt beam="1">  1        2 0.10759597E-01 0.70005344E+02</pdfrwt>
<pdfrwt beam="2">  1       -2 0.26951297E-02 0.70005344E+02</pdfrwt>
<totfact> 0.22791561E+05</totfact>
</mgrwt>
</event>
<event>
 4    1  0.4834411E-002  0.4207011E+02  0.7818608E-02  0.1493508E+00
         -2   -1    0    0  501    0 -0.00000000000E+00  0.00000000000E+00  0.20338295752E+00  0.20339894274E+00  0.25500000000E-02 0. -1.
          2   -1    0    0    0  501  0.00000000000E+00 -0.00000000000E+00 -0.21754830906E+04  0.21754830906E+04  0.25500000000E-02 0. -1.
          2    1    1    2    0  502 -0.16770684658E+00  0.20170875151E+02 -0.77915546848E+03  0.77941653588E+03  0.25500000000E-02 0. -1.
         -2    1    1    2  502    0  0.16770684658E+00 -0.20170875151E+02 -0.13961242392E+04  0.13962699537E+04  0.25500000000E-02 0. -1.
<mgrwt>
<rscale>  0 0.42070112E+02</rscale>
<asrwt>0</asrwt>
<pdfrwt beam="2">  1        2 0.33467107E+00 0.42070112E+02</pdfrwt>
<pdfrwt beam="1">  1       -2 0.31292658E-04 0.42070112E+02</pdfrwt>
<totfact> 0.12981401E+06</totfact>
</mgrwt>
</event>
<event>
 4    1  0.4834411E-002  0.4315474E+02  0.7818608E-02  0.1486201E+00
          2   -1    0    0    0  501  0.00000000000E+00  0.00000000000E+00  0.58802433343E+01  0.58802438872E+01  0.25500000000E-02 0. -1.
         -2   -1    0    0  501    0 -0.00000000000E+00 -0.00000000000E+00 -0.79177469672E+02  0.79177469713E+02  0.25500000000E-02 0. -1.
          2    1    1    2    0  502 -0.16458316043E+02 -0.13060487238E+02 -0.46330649720E+02  0.50872208560E+02  0.25500000000E-02 0. -1.
         -2    1    1    2  502    0  0.16458316043E+02  0.13060487238E+02 -0.26966576618E+02  0.34185505040E+02  0.25500000000E-02 0. -1.
<mgrwt>
<rscale>  0 0.43154736E+02</rscale>
<asrwt>0</asrwt>
<pdfrwt beam="1">  1        2 0.90465292E-03 0.43154736E+02</pdfrwt>
<pdfrwt beam="2">  1       -2 0.12181148E-01 0.43154736E+02</pdfrwt>
<totfact> 0.53226547E+05</totfact>
</mgrwt>
</event>
<event>
 4    1  0.4834411E-002  0.4222855E+02  0.7818608E-02  0.1492424E+00
          2   -1    0    0    0  501  0.00000000000E+00  0.00000000000E+00  0.85999178923E+03  0.85999178924E+03  0.25500000000E-02 0. -1.
         -2   -1    0    0  501    0 -0.00000000000E+00 -0.00000000000E+00 -0.51838854093E+00  0.51839481273E+00  0.25500000000E-02 0. -1.
          2    1    1    2    0  502  0.10041192923E+02 -0.17682085024E+02  0.54560342418E+03  0.54598221415E+03  0.25500000000E-02 0. -1.
         -2    1    1    2  502    0 -0.10041192923E+02  0.17682085024E+02  0.31386997652E+03  0.31452796990E+03  0.25500000000E-02 0. -1.
<mgrwt>
<rscale>  0 0.42228549E+02</rscale>
<asrwt>0</asrwt>
<pdfrwt beam="1">  1        2 0.13230495E+00 0.42228549E+02</pdfrwt>
<pdfrwt beam="2">  1       -2 0.79753460E-04 0.42228549E+02</pdfrwt>
<totfact> 0.17254200E+06</totfact>
</mgrwt>
</event>
<event>
 4    1  0.4834411E-002  0.4251235E+02  0.7818608E-02  0.1490497E+00
          2   -1    0    0    0  501  0.00000000000E+00  0.00000000000E+00  0.88717415044E+03  0.88717415044E+03  0.25500000000E-02 0.  1.
         -2   -1    0    0  501    0 -0.00000000000E+00 -0.00000000000E+00 -0.50928225282E+00  0.50928863677E+00  0.25500000000E-02 0.  1.
          2    1    1    2    0  502 -0.21014577058E+02  0.31306826078E+01  0.45672300830E+03  0.45721692876E+03  0.25500000000E-02 0.  1.
         -2    1    1    2  502    0  0.21014577058E+02 -0.31306826078E+01  0.42994185988E+03  0.43046651032E+03  0.25500000000E-02 0.  1.
<mgrwt>
<rscale>  0 0.42512346E+02</rscale>
<asrwt>0</asrwt>
<pdfrwt beam="1">  1        2 0.13648799E+00 0.42512346E+02</pdfrwt>
<pdfrwt beam="2">  1       -2 0.78351804E-04 0.42512346E+02</pdfrwt>
<totfact> 0.17043247E+06</totfact>
</mgrwt>
</event>
<event>
 4    1  0.4834411E-002  0.4821742E+02  0.7818608E-02  0.1455200E+00
          2   -1    0    0    0  501  0.00000000000E+00  0.00000000000E+00  0.32115074530E+03  0.32115074531E+03  0.25500000000E-02 0.  1.
         -2   -1    0    0  501    0 -0.00000000000E+00 -0.00000000000E+00 -0.18098340776E+01  0.18098358740E+01  0.25500000000E-02 0.  1.
          2    1    1    2    0  502 -0.14070626242E+02  0.19455725943E+02  0.17422541532E+03  0.17587212157E+03  0.25500000000E-02 0.  1.
         -2    1    1    2  502    0  0.14070626242E+02 -0.19455725943E+02  0.14511549590E+03  0.14708845961E+03  0.25500000000E-02 0.  1.
<mgrwt>
<rscale>  0 0.48217418E+02</rscale>
<asrwt>0</asrwt>
<pdfrwt beam="1">  1        2 0.49407731E-01 0.48217418E+02</pdfrwt>
<pdfrwt beam="2">  1       -2 0.27843658E-03 0.48217418E+02</pdfrwt>
<totfact> 0.94791909E+05</totfact>
</mgrwt>
</event>
<event>
 4    1  0.4834411E-002  0.5640315E+02  0.7818608E-02  0.1413577E+00
          2   -1    0    0    0  501  0.00000000000E+00  0.00000000000E+00  0.35147385750E+02  0.35147385843E+02  0.25500000000E-02 0. -1.
         -2   -1    0    0  501    0 -0.00000000000E+00 -0.00000000000E+00 -0.22628388437E+02  0.22628388581E+02  0.25500000000E-02 0. -1.
          2    1    1    2    0  502  0.25135283468E+02 -0.11219981872E+02  0.12545470043E+02  0.30249946997E+02  0.25500000000E-02 0. -1.
         -2    1    1    2  502    0 -0.25135283468E+02  0.11219981872E+02 -0.26472730529E-01  0.27525827427E+02  0.25500000000E-02 0. -1.
<mgrwt>
<rscale>  0 0.56403145E+02</rscale>
<asrwt>0</asrwt>
<pdfrwt beam="1">  1        2 0.54072901E-02 0.56403145E+02</pdfrwt>
<pdfrwt beam="2">  1       -2 0.34812906E-02 0.56403145E+02</pdfrwt>
<totfact> 0.35095789E+05</totfact>
</mgrwt>
</event>
<event>
 4    1  0.4834411E-002  0.9961502E+02  0.7818608E-02  0.1281108E+00
          2   -1    0    0    0  501  0.00000000000E+00  0.00000000000E+00  0.71938903463E+03  0.71938903464E+03  0.25500000000E-02 0.  1.
         -2   -1    0    0  501    0 -0.00000000000E+00 -0.00000000000E+00 -0.34484647644E+01  0.34484657072E+01  0.25500000000E-02 0.  1.
          2    1    1    2    0  502  0.49470911395E+02  0.44279535152E+01  0.38493626800E+03  0.38812743819E+03  0.25500000000E-02 0. -1.
         -2    1    1    2  502    0 -0.49470911395E+02 -0.44279535152E+01  0.33100430186E+03  0.33471006215E+03  0.25500000000E-02 0. -1.
<mgrwt>
<rscale>  0 0.99615021E+02</rscale>
<asrwt>0</asrwt>
<pdfrwt beam="1">  1        2 0.11067530E+00 0.99615021E+02</pdfrwt>
<pdfrwt beam="2">  1       -2 0.53053281E-03 0.99615021E+02</pdfrwt>
<totfact> 0.18874229E+05</totfact>
</mgrwt>
</event>
<event>
 4    1  0.4834411E-002  0.4184022E+02  0.7818608E-02  0.1495090E+00
         -2   -1    0    0  501    0 -0.00000000000E+00  0.00000000000E+00  0.35521200755E+01  0.35521209908E+01  0.25500000000E-02 0. -1.
          2   -1    0    0    0  501  0.00000000000E+00 -0.00000000000E+00 -0.12320840345E+03  0.12320840347E+03  0.25500000000E-02 0. -1.
          2    1    1    2    0  502 -0.31663990159E+01 -0.20622515274E+02 -0.64459495892E+02  0.67752054110E+02  0.25500000000E-02 0.  1.
         -2    1    1    2  502    0  0.31663990159E+01  0.20622515274E+02 -0.55196787477E+02  0.59008470352E+02  0.25500000000E-02 0.  1.
<mgrwt>
<rscale>  0 0.41840225E+02</rscale>
<asrwt>0</asrwt>
<pdfrwt beam="2">  1        2 0.18955136E-01 0.41840225E+02</pdfrwt>
<pdfrwt beam="1">  1       -2 0.54648018E-03 0.41840225E+02</pdfrwt>
<totfact> 0.98825908E+05</totfact>
</mgrwt>
</event>
<event>
 4    1  0.4834411E-002  0.4420393E+02  0.7818608E-02  0.1479373E+00
         -2   -1    0    0  501    0 -0.00000000000E+00  0.00000000000E+00  0.18918226740E+01  0.18918243925E+01  0.25500000000E-02 0. -1.
          2   -1    0    0    0  501  0.00000000000E+00 -0.00000000000E+00 -0.25821479387E+03  0.25821479388E+03  0.25500000000E-02 0. -1.
          2    1    1    2    0  502 -0.92463010111E+01 -0.18512406651E+02 -0.17385198638E+03  0.17507917197E+03  0.25500000000E-02 0.  1.
         -2    1    1    2  502    0  0.92463010111E+01  0.18512406651E+02 -0.82470984812E+02  0.85027446302E+02  0.25500000000E-02 0.  1.
<mgrwt>
<rscale>  0 0.44203929E+02</rscale>
<asrwt>0</asrwt>
<pdfrwt beam="2">  1        2 0.39725325E-01 0.44203929E+02</pdfrwt>
<pdfrwt beam="1">  1       -2 0.29104998E-03 0.44203929E+02</pdfrwt>
<totfact> 0.10891942E+06</totfact>
</mgrwt>
</event>
<event>
 4    1  0.4834411E-002  0.4918672E+02  0.7818608E-02  0.1449778E+00
          2   -1    0    0    0  501  0.00000000000E+00  0.00000000000E+00  0.18707222674E+04  0.18707222674E+04  0.25500000000E-02 0.  1.
         -2   -1    0    0  501    0 -0.00000000000E+00 -0.00000000000E+00 -0.32331042910E+00  0.32332048507E+00  0.25500000000E-02 0.  1.
          2    1    1    2    0  502  0.20276144601E+02 -0.13156954296E+02  0.11078757443E+04  0.11081393831E+04  0.25500000000E-02 0.  1.
         -2    1    1    2  502    0 -0.20276144601E+02  0.13156954296E+02  0.76252321261E+03  0.76290620476E+03  0.25500000000E-02 0.  1.
<mgrwt>
<rscale>  0 0.49186723E+02</rscale>
<asrwt>0</asrwt>
<pdfrwt beam="1">  1        2 0.28781060E+00 0.49186723E+02</pdfrwt>
<pdfrwt beam="2">  1       -2 0.49739600E-04 0.49186723E+02</pdfrwt>
<totfact> 0.10130137E+06</totfact>
</mgrwt>
</event>
<event>
 4    1  0.4834411E-002  0.4222153E+02  0.7818608E-02  0.1492472E+00
          2   -1    0    0    0  501  0.00000000000E+00  0.00000000000E+00  0.33416219667E+03  0.33416219668E+03  0.25500000000E-02 0.  1.
         -2   -1    0    0  501    0 -0.00000000000E+00 -0.00000000000E+00 -0.13336756572E+01  0.13336780950E+01  0.25500000000E-02 0.  1.
          2    1    1    2    0  502  0.14505219630E+02 -0.15181705451E+02  0.14904372133E+03  0.15051550237E+03  0.25500000000E-02 0. -1.
         -2    1    1    2  502    0 -0.14505219630E+02  0.15181705451E+02  0.18378479968E+03  0.18498037241E+03  0.25500000000E-02 0. -1.
<mgrwt>
<rscale>  0 0.42221530E+02</rscale>
<asrwt>0</asrwt>
<pdfrwt beam="1">  1        2 0.51409557E-01 0.42221530E+02</pdfrwt>
<pdfrwt beam="2">  1       -2 0.20518111E-03 0.42221530E+02</pdfrwt>
<totfact> 0.13313298E+06</totfact>
</mgrwt>
</event>
<event>
 4    1  0.4834411E-002  0.1004096E+03  0.7818608E-02  0.1279437E+00
          2   -1    0    0    0  501  0.00000000000E+00  0.00000000000E+00  0.95127658780E+03  0.95127658781E+03  0.25500000000E-02 0.  1.
         -2   -1    0    0  501    0 -0.00000000000E+00 -0.00000000000E+00 -0.26496200848E+01  0.26496213118E+01  0.25500000000E-02 0.  1.
          2    1    1    2    0  502  0.36359578769E+02  0.28703066341E+02  0.65819790904E+03  0.65982601681E+03  0.25500000000E-02 0.  1.
         -2    1    1    2  502    0 -0.36359578769E+02 -0.28703066341E+02  0.29042905867E+03  0.29410019231E+03  0.25500000000E-02 0.  1.
<mgrwt>
<rscale>  0 0.10040960E+03</rscale>
<asrwt>0</asrwt>
<pdfrwt beam="1">  1        2 0.14635031E+00 0.10040960E+03</pdfrwt>
<pdfrwt beam="2">  1       -2 0.40763378E-03 0.10040960E+03</pdfrwt>
<totfact> 0.19310743E+05</totfact>
</mgrwt>
</event>
<event>
 4    1  0.4834411E-002  0.5985288E+02  0.7818608E-02  0.1398450E+00
          2   -1    0    0    0  501  0.00000000000E+00  0.00000000000E+00  0.80930727840E+03  0.80930727840E+03  0.25500000000E-02 0. -1.
         -2   -1    0    0  501    0 -0.00000000000E+00 -0.00000000000E+00 -0.11066138129E+01  0.11066167509E+01  0.25500000000E-02 0. -1.
          2    1    1    2    0  502 -0.77662929302E+00 -0.29762566073E+02  0.44512103595E+03  0.44611562418E+03  0.25500000000E-02 0. -1.
         -2    1    1    2  502    0  0.77662929302E+00  0.29762566073E+02  0.36307962864E+03  0.36429827097E+03  0.25500000000E-02 0. -1.
<mgrwt>
<rscale>  0 0.59852880E+02</rscale>
<asrwt>0</asrwt>
<pdfrwt beam="1">  1        2 0.12450920E+00 0.59852880E+02</pdfrwt>
<pdfrwt beam="2">  1       -2 0.17024797E-03 0.59852880E+02</pdfrwt>
<totfact> 0.72284144E+05</totfact>
</mgrwt>
</event>
<event>
 4    1  0.4834411E-002  0.5157929E+02  0.7818608E-02  0.1437005E+00
          2   -1    0    0    0  501  0.00000000000E+00  0.00000000000E+00  0.60366802899E+03  0.60366802900E+03  0.25500000000E-02 0.  1.
         -2   -1    0    0  501    0 -0.00000000000E+00 -0.00000000000E+00 -0.11017724818E+01  0.11017754327E+01  0.25500000000E-02 0.  1.
          2    1    1    2    0  502  0.96477646752E+01  0.23602294567E+02  0.34663049540E+03  0.34756704104E+03  0.25500000000E-02 0. -1.
         -2    1    1    2  502    0 -0.96477646752E+01 -0.23602294567E+02  0.25593576111E+03  0.25720276339E+03  0.25500000000E-02 0. -1.
<mgrwt>
<rscale>  0 0.51579287E+02</rscale>
<asrwt>0</asrwt>
<pdfrwt beam="1">  1        2 0.92872114E-01 0.51579287E+02</pdfrwt>
<pdfrwt beam="2">  1       -2 0.16950349E-03 0.51579287E+02</pdfrwt>
<totfact> 0.98228321E+05</totfact>
</mgrwt>
</event>
<event>
 4    1  0.4834411E-002  0.5734909E+02  0.7818608E-02  0.1409306E+00
         -2   -1    0    0  501    0 -0.00000000000E+00  0.00000000000E+00  0.79440867462E+00  0.79441276728E+00  0.25500000000E-02 0.  1.
          2   -1    0    0    0  501  0.00000000000E+00 -0.00000000000E+00 -0.10350180473E+04  0.10350180473E+04  0.25500000000E-02 0.  1.
          2    1    1    2    0  502  0.18884410953E+02 -0.79510004312E+01 -0.87942008229E+03  0.87965875232E+03  0.25500000000E-02 0.  1.
         -2    1    1    2  502    0 -0.18884410953E+02  0.79510004312E+01 -0.15480355637E+03  0.15615370779E+03  0.25500000000E-02 0.  1.
<mgrwt>
<rscale>  0 0.57349087E+02</rscale>
<asrwt>0</asrwt>
<pdfrwt beam="2">  1        2 0.15923247E+00 0.57349087E+02</pdfrwt>
<pdfrwt beam="1">  1       -2 0.12221786E-03 0.57349087E+02</pdfrwt>
<totfact> 0.82411289E+05</totfact>
</mgrwt>
</event>
<event>
 4    1  0.4834411E-002  0.7293918E+02  0.7818608E-02  0.1350374E+00
          2   -1    0    0    0  501  0.00000000000E+00  0.00000000000E+00  0.19825933167E+02  0.19825933331E+02  0.25500000000E-02 0. -1.
         -2   -1    0    0  501    0 -0.00000000000E+00 -0.00000000000E+00 -0.67085407835E+02  0.67085407883E+02  0.25500000000E-02 0. -1.
          2    1    1    2    0  502  0.22836245447E+01 -0.21550042283E+02  0.11321996136E+02  0.24450089294E+02  0.25500000000E-02 0.  1.
         -2    1    1    2  502    0 -0.22836245447E+01  0.21550042283E+02 -0.58581470804E+02  0.62461251921E+02  0.25500000000E-02 0.  1.
<mgrwt>
<rscale>  0 0.72939175E+02</rscale>
<asrwt>0</asrwt>
<pdfrwt beam="1">  1        2 0.30501436E-02 0.72939175E+02</pdfrwt>
<pdfrwt beam="2">  1       -2 0.10320832E-01 0.72939175E+02</pdfrwt>
<totfact> 0.15376381E+05</totfact>
</mgrwt>
</event>
<event>
 4    1  0.4834411E-002  0.4941066E+02  0.7818608E-02  0.1448546E+00
         -2   -1    0    0  501    0 -0.00000000000E+00  0.00000000000E+00  0.50265235702E+00  0.50265882517E+00  0.25500000000E-02 0. -1.
          2   -1    0    0    0  501  0.00000000000E+00 -0.00000000000E+00 -0.12142573936E+04  0.12142573936E+04  0.25500000000E-02 0. -1.
          2    1    1    2    0  502 -0.79021450357E+00 -0.24659599906E+02 -0.63829384192E+03  0.63877049787E+03  0.25500000000E-02 0.  1.
         -2    1    1    2  502    0  0.79021450357E+00  0.24659599906E+02 -0.57546089932E+03  0.57598955456E+03  0.25500000000E-02 0.  1.
<mgrwt>
<rscale>  0 0.49410658E+02</rscale>
<asrwt>0</asrwt>
<pdfrwt beam="2">  1        2 0.18680648E+00 0.49410658E+02</pdfrwt>
<pdfrwt beam="1">  1       -2 0.77332601E-04 0.49410658E+02</pdfrwt>
<totfact> 0.11849231E+06</totfact>
</mgrwt>
</event>
<event>
 4    1  0.4834411E-002  0.4419899E+02  0.7818608E-02  0.1479405E+00
         -2   -1    0    0  501    0 -0.00000000000E+00  0.00000000000E+00  0.60364693363E+00  0.60365231962E+00  0.25500000000E-02 0.  1.
          2   -1    0    0    0  501  0.00000000000E+00 -0.00000000000E+00 -0.80905835148E+03  0.80905835148E+03  0.25500000000E-02 0.  1.
          2    1    1    2    0  502  0.14853642194E+02 -0.15711632373E+02 -0.48797682383E+03  0.48845559336E+03  0.25500000000E-02 0. -1.
         -2    1    1    2  502    0 -0.14853642194E+02  0.15711632373E+02 -0.32047788072E+03  0.32120641045E+03  0.25500000000E-02 0. -1.
<mgrwt>
<rscale>  0 0.44198994E+02</rscale>
<asrwt>0</asrwt>
<pdfrwt beam="2">  1        2 0.12446965E+00 0.44198994E+02</pdfrwt>
<pdfrwt beam="1">  1       -2 0.92869821E-04 0.44198994E+02</pdfrwt>
<totfact> 0.15308573E+06</totfact>
</mgrwt>
</event>
<event>
 4    1  0.4834411E-002  0.8032794E+02  0.7818608E-02  0.1328123E+00
          2   -1    0    0    0  501  0.00000000000E+00  0.00000000000E+00  0.49339207518E+03  0.49339207519E+03  0.25500000000E-02 0.  1.
         -2   -1    0    0  501    0 -0.00000000000E+00 -0.00000000000E+00 -0.32694974645E+01  0.32694984589E+01  0.25500000000E-02 0.  1.
          2    1    1    2    0  502 -0.30744708506E+02  0.29351339712E+01  0.40381830775E+03  0.40499762690E+03  0.25500000000E-02 0.  1.
         -2    1    1    2  502    0  0.30744708506E+02 -0.29351339712E+01  0.86304269966E+02  0.91663946748E+02  0.25500000000E-02 0.  1.
<mgrwt>
<rscale>  0 0.80327938E+02</rscale>
<asrwt>0</asrwt>
<pdfrwt beam="1">  1        2 0.75906412E-01 0.80327938E+02</pdfrwt>
<pdfrwt beam="2">  1       -2 0.50300009E-03 0.80327938E+02</pdfrwt>
<totfact> 0.29936619E+05</totfact>
</mgrwt>
</event>
<event>
 4    1  0.4834411E-002  0.6923052E+02  0.7818608E-02  0.1362729E+00
         -2   -1    0    0  501    0 -0.00000000000E+00  0.00000000000E+00  0.26251861171E+01  0.26251873556E+01  0.25500000000E-02 0. -1.
          2   -1    0    0    0  501  0.00000000000E+00 -0.00000000000E+00 -0.45643085633E+03  0.45643085634E+03  0.25500000000E-02 0. -1.
          2    1    1    2    0  502 -0.34592833367E+02  0.12349170237E+01 -0.22581153586E+03  0.22844920414E+03  0.25500000000E-02 0.  1.
         -2    1    1    2  502    0  0.34592833367E+02 -0.12349170237E+01 -0.22799413436E+03  0.23060683955E+03  0.25500000000E-02 0.  1.
<mgrwt>
<rscale>  0 0.69230520E+02</rscale>
<asrwt>0</asrwt>
<pdfrwt beam="2">  1        2 0.70220069E-01 0.69230520E+02</pdfrwt>
<pdfrwt beam="1">  1       -2 0.40387525E-03 0.69230520E+02</pdfrwt>
<totfact> 0.42903173E+05</totfact>
</mgrwt>
</event>
<event>
 4    1  0.4834411E-002  0.4254812E+02  0.7818608E-02  0.1490256E+00
          2   -1    0    0    0  501  0.00000000000E+00  0.00000000000E+00  0.12914668310E+04  0.12914668310E+04  0.25500000000E-02 0. -1.
         -2   -1    0    0  501    0 -0.00000000000E+00 -0.00000000000E+00 -0.35043848071E+00  0.35044775825E+00  0.25500000000E-02 0. -1.
          2    1    1    2    0  502 -0.19634738424E+02  0.81120087129E+01  0.67961195434E+03  0.67994392131E+03  0.25500000000E-02 0. -1.
         -2    1    1    2  502    0  0.19634738424E+02 -0.81120087129E+01  0.61150443817E+03  0.61187335744E+03  0.25500000000E-02 0. -1.
<mgrwt>
<rscale>  0 0.42548122E+02</rscale>
<asrwt>0</asrwt>
<pdfrwt beam="1">  1        2 0.19868694E+00 0.42548122E+02</pdfrwt>
<pdfrwt beam="2">  1       -2 0.53914399E-04 0.42548122E+02</pdfrwt>
<totfact> 0.16935445E+06</totfact>
</mgrwt>
</event>
<event>
 4    1  0.4834411E-002  0.6968764E+02  0.7818608E-02  0.1361158E+00
         -2   -1    0    0  501    0 -0.00000000000E+00  0.00000000000E+00  0.45892169510E+00  0.45892877959E+00  0.25500000000E-02 0. -1.
          2   -1    0    0    0  501  0.00000000000E+00 -0.00000000000E+00 -0.26455108034E+04  0.26455108034E+04  0.25500000000E-02 0. -1.
          2    1    1    2    0  502 -0.35151318714E+01  0.34617506157E+02 -0.12528884229E+04  0.12533715045E+04  0.25500000000E-02 0. -1.
         -2    1    1    2  502    0  0.35151318714E+01 -0.34617506157E+02 -0.13921634588E+04  0.13925982277E+04  0.25500000000E-02 0. -1.
<mgrwt>
<rscale>  0 0.69687637E+02</rscale>
<asrwt>0</asrwt>
<pdfrwt beam="2">  1        2 0.40698945E+00 0.69687637E+02</pdfrwt>
<pdfrwt beam="1">  1       -2 0.70606002E-04 0.69687637E+02</pdfrwt>
<totfact> 0.27248098E+05</totfact>
</mgrwt>
</event>
<event>
 4    1  0.4834411E-002  0.7240525E+02  0.7818608E-02  0.1352100E+00
         -2   -1    0    0  501    0 -0.00000000000E+00  0.00000000000E+00  0.95314799075E+01  0.95314802486E+01  0.25500000000E-02 0. -1.
          2   -1    0    0    0  501  0.00000000000E+00 -0.00000000000E+00 -0.13750542256E+03  0.13750542258E+03  0.25500000000E-02 0. -1.
          2    1    1    2    0  502  0.76125435585E+01  0.22053737274E+02 -0.77710812494E+01  0.24590808394E+02  0.25500000000E-02 0. -1.
         -2    1    1    2  502    0 -0.76125435585E+01 -0.22053737274E+02 -0.12020286140E+03  0.12244609444E+03  0.25500000000E-02 0. -1.
<mgrwt>
<rscale>  0 0.72405254E+02</rscale>
<asrwt>0</asrwt>
<pdfrwt beam="2">  1        2 0.21154679E-01 0.72405254E+02</pdfrwt>
<pdfrwt beam="1">  1       -2 0.14663817E-02 0.72405254E+02</pdfrwt>
<totfact> 0.25182522E+05</totfact>
</mgrwt>
</event>
<event>
 4    1  0.4834411E-002  0.7291146E+02  0.7818608E-02  0.1350463E+00
          2   -1    0    0    0  501  0.00000000000E+00  0.00000000000E+00  0.73198289714E+03  0.73198289715E+03  0.25500000000E-02 0.  1.
         -2   -1    0    0  501    0 -0.00000000000E+00 -0.00000000000E+00 -0.18156430886E+01  0.18156448793E+01  0.25500000000E-02 0.  1.
          2    1    1    2    0  502 -0.26702319403E+02 -0.30413481656E+01  0.61299035719E+03  0.61357920571E+03  0.25500000000E-02 0. -1.
         -2    1    1    2  502    0  0.26702319403E+02  0.30413481656E+01  0.11717689686E+03  0.12021933632E+03  0.25500000000E-02 0. -1.
<mgrwt>
<rscale>  0 0.72911463E+02</rscale>
<asrwt>0</asrwt>
<pdfrwt beam="1">  1        2 0.11261298E+00 0.72911463E+02</pdfrwt>
<pdfrwt beam="2">  1       -2 0.27932929E-03 0.72911463E+02</pdfrwt>
<totfact> 0.42897749E+05</totfact>
</mgrwt>
</event>
<event>
 4    1  0.4834411E-002  0.6141854E+02  0.7818608E-02  0.1391973E+00
          2   -1    0    0    0  501  0.00000000000E+00  0.00000000000E+00  0.61458340206E+02  0.61458340259E+02  0.25500000000E-02 0. -1.
         -2   -1    0    0  501    0 -0.00000000000E+00 -0.00000000000E+00 -0.15344690481E+02  0.15344690693E+02  0.25500000000E-02 0. -1.
          2    1    1    2    0  502 -0.21971727139E+02  0.62292753041E+01  0.48729842698E+02  0.53815966406E+02  0.25500000000E-02 0. -1.
         -2    1    1    2  502    0  0.21971727139E+02 -0.62292753041E+01 -0.26161929739E+01  0.22987064546E+02  0.25500000000E-02 0. -1.
<mgrwt>
<rscale>  0 0.61418539E+02</rscale>
<asrwt>0</asrwt>
<pdfrwt beam="1">  1        2 0.94551292E-02 0.61418539E+02</pdfrwt>
<pdfrwt beam="2">  1       -2 0.23607217E-02 0.61418539E+02</pdfrwt>
<totfact> 0.31317879E+05</totfact>
</mgrwt>
</event>
<event>
 4    1  0.4834411E-002  0.6504039E+02  0.7818608E-02  0.1377820E+00
          2   -1    0    0    0  501  0.00000000000E+00  0.00000000000E+00  0.38094351595E+03  0.38094351596E+03  0.25500000000E-02 0. -1.
         -2   -1    0    0  501    0 -0.00000000000E+00 -0.00000000000E+00 -0.27761672484E+01  0.27761684195E+01  0.25500000000E-02 0. -1.
          2    1    1    2    0  502 -0.77512661369E+01 -0.31104516431E+02  0.22139238452E+03  0.22370105274E+03  0.25500000000E-02 0.  1.
         -2    1    1    2  502    0  0.77512661369E+01  0.31104516431E+02  0.15677496418E+03  0.16001863164E+03  0.25500000000E-02 0.  1.
<mgrwt>
<rscale>  0 0.65040392E+02</rscale>
<asrwt>0</asrwt>
<pdfrwt beam="1">  1        2 0.58606643E-01 0.65040392E+02</pdfrwt>
<pdfrwt beam="2">  1       -2 0.42710312E-03 0.65040392E+02</pdfrwt>
<totfact> 0.47340000E+05</totfact>
</mgrwt>
</event>
<event>
 4    1  0.4834411E-002  0.5049524E+02  0.7818608E-02  0.1442689E+00
         -2   -1    0    0  501    0 -0.00000000000E+00  0.00000000000E+00  0.45312589953E+02  0.45312590025E+02  0.25500000000E-02 0. -1.
          2   -1    0    0    0  501  0.00000000000E+00 -0.00000000000E+00 -0.14067663313E+02  0.14067663545E+02  0.25500000000E-02 0. -1.
          2    1    1    2    0  502 -0.33678873531E+01 -0.23792901271E+02  0.65137296510E+01  0.24897258817E+02  0.25500000000E-02 0.  1.
         -2    1    1    2  502    0  0.33678873531E+01  0.23792901271E+02  0.24731196989E+02  0.34482994753E+02  0.25500000000E-02 0.  1.
<mgrwt>
<rscale>  0 0.50495238E+02</rscale>
<asrwt>0</asrwt>
<pdfrwt beam="2">  1        2 0.21642559E-02 0.50495238E+02</pdfrwt>
<pdfrwt beam="1">  1       -2 0.69711679E-02 0.50495238E+02</pdfrwt>
<totfact> 0.40499964E+05</totfact>
</mgrwt>
</event>
<event>
 4    1  0.4834411E-002  0.8421777E+02  0.7818608E-02  0.1317491E+00
          2   -1    0    0    0  501  0.00000000000E+00  0.00000000000E+00  0.61320328104E+02  0.61320328157E+02  0.25500000000E-02 0.  1.
         -2   -1    0    0  501    0 -0.00000000000E+00 -0.00000000000E+00 -0.28916316895E+02  0.28916317007E+02  0.25500000000E-02 0.  1.
          2    1    1    2    0  502 -0.26718287881E+02 -0.13687856673E+02  0.47840875036E+02  0.56479851791E+02  0.25500000000E-02 0. -1.
         -2    1    1    2  502    0  0.26718287881E+02  0.13687856673E+02 -0.15436863826E+02  0.33756793374E+02  0.25500000000E-02 0. -1.
<mgrwt>
<rscale>  0 0.84217766E+02</rscale>
<asrwt>0</asrwt>
<pdfrwt beam="1">  1        2 0.94338966E-02 0.84217766E+02</pdfrwt>
<pdfrwt beam="2">  1       -2 0.44486642E-02 0.84217766E+02</pdfrwt>
<totfact> 0.13320732E+05</totfact>
</mgrwt>
</event>
<event>
 4    1  0.4834411E-002  0.6995047E+02  0.7818608E-02  0.1360262E+00
          2   -1    0    0    0  501  0.00000000000E+00  0.00000000000E+00  0.16260150278E+04  0.16260150278E+04  0.25500000000E-02 0.  1.
         -2   -1    0    0  501    0 -0.00000000000E+00 -0.00000000000E+00 -0.75230771332E+00  0.75231203501E+00  0.25500000000E-02 0.  1.
          2    1    1    2    0  502  0.14914715903E+02  0.24913380406E+02  0.12660586460E+04  0.12663915747E+04  0.25500000000E-02 0. -1.
         -2    1    1    2  502    0 -0.14914715903E+02 -0.24913380406E+02  0.35920407407E+03  0.36037576515E+03  0.25500000000E-02 0. -1.
<mgrwt>
<rscale>  0 0.69950473E+02</rscale>
<asrwt>0</asrwt>
<pdfrwt beam="1">  1        2 0.25015527E+00 0.69950473E+02</pdfrwt>
<pdfrwt beam="2">  1       -2 0.11574039E-03 0.69950473E+02</pdfrwt>
<totfact> 0.45391048E+05</totfact>
</mgrwt>
</event>
<event>
 4    1  0.4834411E-002  0.4482120E+02  0.7818608E-02  0.1475461E+00
          2   -1    0    0    0  501  0.00000000000E+00  0.00000000000E+00  0.10504466128E+03  0.10504466131E+03  0.25500000000E-02 0.  1.
         -2   -1    0    0  501    0 -0.00000000000E+00 -0.00000000000E+00 -0.47811562578E+01  0.47811569378E+01  0.25500000000E-02 0.  1.
          2    1    1    2    0  502  0.10898182642E+02 -0.18951835202E+02  0.38054800361E+02  0.43887472921E+02  0.25500000000E-02 0. -1.
         -2    1    1    2  502    0 -0.10898182642E+02  0.18951835202E+02  0.62208704665E+02  0.65938345332E+02  0.25500000000E-02 0. -1.
<mgrwt>
<rscale>  0 0.44821199E+02</rscale>
<asrwt>0</asrwt>
<pdfrwt beam="1">  1        2 0.16160717E-01 0.44821199E+02</pdfrwt>
<pdfrwt beam="2">  1       -2 0.73556256E-03 0.44821199E+02</pdfrwt>
<totfact> 0.79826464E+05</totfact>
</mgrwt>
</event>
<event>
 4    1  0.4834411E-002  0.8506087E+02  0.7818608E-02  0.1315273E+00
         -2   -1    0    0  501    0 -0.00000000000E+00  0.00000000000E+00  0.20932921667E+01  0.20932937199E+01  0.25500000000E-02 0.  1.
          2   -1    0    0    0  501  0.00000000000E+00 -0.00000000000E+00 -0.86411123652E+03  0.86411123652E+03  0.25500000000E-02 0.  1.
          2    1    1    2    0  502  0.28038281482E+02  0.17277302291E+02 -0.70505035488E+03  0.70581913641E+03  0.25500000000E-02 0. -1.
         -2    1    1    2  502    0 -0.28038281482E+02 -0.17277302291E+02 -0.15696758947E+03  0.16038539383E+03  0.25500000000E-02 0. -1.
<mgrwt>
<rscale>  0 0.85060871E+02</rscale>
<asrwt>0</asrwt>
<pdfrwt beam="2">  1        2 0.13293991E+00 0.85060871E+02</pdfrwt>
<pdfrwt beam="1">  1       -2 0.32204576E-03 0.85060871E+02</pdfrwt>
<totfact> 0.29601105E+05</totfact>
</mgrwt>
</event>
<event>
 4    1  0.4834411E-002  0.4320777E+02  0.7818608E-02  0.1485851E+00
          2   -1    0    0    0  501  0.00000000000E+00  0.00000000000E+00  0.33549363941E+03  0.33549363942E+03  0.25500000000E-02 0.  1.
         -2   -1    0    0  501    0 -0.00000000000E+00 -0.00000000000E+00 -0.13911663347E+01  0.13911686717E+01  0.25500000000E-02 0.  1.
          2    1    1    2    0  502  0.21546191083E+02 -0.12928859687E+01  0.17410272155E+03  0.17543565078E+03  0.25500000000E-02 0.  1.
         -2    1    1    2  502    0 -0.21546191083E+02  0.12928859687E+01  0.15999975152E+03  0.16144915732E+03  0.25500000000E-02 0.  1.
<mgrwt>
<rscale>  0 0.43207770E+02</rscale>
<asrwt>0</asrwt>
<pdfrwt beam="1">  1        2 0.51614514E-01 0.43207770E+02</pdfrwt>
<pdfrwt beam="2">  1       -2 0.21402532E-03 0.43207770E+02</pdfrwt>
<totfact> 0.12602089E+06</totfact>
</mgrwt>
</event>
<event>
 4    1  0.4834411E-002  0.4223316E+02  0.7818608E-02  0.1492393E+00
         -2   -1    0    0  501    0 -0.00000000000E+00  0.00000000000E+00  0.90304574668E+00  0.90304934699E+00  0.25500000000E-02 0.  1.
          2   -1    0    0    0  501  0.00000000000E+00 -0.00000000000E+00 -0.49378353621E+03  0.49378353622E+03  0.25500000000E-02 0.  1.
          2    1    1    2    0  502 -0.18711585318E+02 -0.83913975883E+01 -0.18744112064E+03  0.18855957332E+03  0.25500000000E-02 0.  1.
         -2    1    1    2  502    0  0.18711585318E+02  0.83913975883E+01 -0.30543936983E+03  0.30612701224E+03  0.25500000000E-02 0.  1.
<mgrwt>
<rscale>  0 0.42233163E+02</rscale>
<asrwt>0</asrwt>
<pdfrwt beam="2">  1        2 0.75966482E-01 0.42233163E+02</pdfrwt>
<pdfrwt beam="1">  1       -2 0.13893079E-03 0.42233163E+02</pdfrwt>
<totfact> 0.15127707E+06</totfact>
</mgrwt>
</event>
<event>
 4    1  0.4834411E-002  0.5893872E+02  0.7818608E-02  0.1402340E+00
         -2   -1    0    0  501    0 -0.00000000000E+00  0.00000000000E+00  0.17306243621E+01  0.17306262407E+01  0.25500000000E-02 0. -1.
          2   -1    0    0    0  501  0.00000000000E+00 -0.00000000000E+00 -0.50180884410E+03  0.50180884410E+03  0.25500000000E-02 0. -1.
          2    1    1    2    0  502  0.17851242259E+02 -0.11782198428E+02 -0.42323218376E+03  0.42377230729E+03  0.25500000000E-02 0. -1.
         -2    1    1    2  502    0 -0.17851242259E+02  0.11782198428E+02 -0.76846035975E+02  0.79767163053E+02  0.25500000000E-02 0. -1.
<mgrwt>
<rscale>  0 0.58938717E+02</rscale>
<asrwt>0</asrwt>
<pdfrwt beam="2">  1        2 0.77201245E-01 0.58938717E+02</pdfrwt>
<pdfrwt beam="1">  1       -2 0.26625045E-03 0.58938717E+02</pdfrwt>
<totfact> 0.66659568E+05</totfact>
</mgrwt>
</event>
<event>
 4    1  0.4834411E-002  0.6607467E+02  0.7818608E-02  0.1373974E+00
          2   -1    0    0    0  501  0.00000000000E+00  0.00000000000E+00  0.14094131294E+03  0.14094131296E+03  0.25500000000E-02 0.  1.
         -2   -1    0    0  501    0 -0.00000000000E+00 -0.00000000000E+00 -0.77441129236E+01  0.77441133435E+01  0.25500000000E-02 0.  1.
          2    1    1    2    0  502 -0.20688064568E+02  0.13747629324E+02  0.11561470125E+03  0.11825291742E+03  0.25500000000E-02 0.  1.
         -2    1    1    2  502    0  0.20688064568E+02 -0.13747629324E+02  0.17582498771E+02  0.30432508887E+02  0.25500000000E-02 0.  1.
<mgrwt>
<rscale>  0 0.66074669E+02</rscale>
<asrwt>0</asrwt>
<pdfrwt beam="1">  1        2 0.21683280E-01 0.66074669E+02</pdfrwt>
<pdfrwt beam="2">  1       -2 0.11914020E-02 0.66074669E+02</pdfrwt>
<totfact> 0.32262995E+05</totfact>
</mgrwt>
</event>
<event>
 4    1  0.4834411E-002  0.4697995E+02  0.7818608E-02  0.1462347E+00
         -2   -1    0    0  501    0 -0.00000000000E+00  0.00000000000E+00  0.11851292660E+01  0.11851320094E+01  0.25500000000E-02 0.  1.
          2   -1    0    0    0  501  0.00000000000E+00 -0.00000000000E+00 -0.46558498017E+03  0.46558498018E+03  0.25500000000E-02 0.  1.
          2    1    1    2    0  502  0.17033847409E+02  0.13685718986E+02 -0.31785776945E+03  0.31860792907E+03  0.25500000000E-02 0. -1.
         -2    1    1    2  502    0 -0.17033847409E+02 -0.13685718986E+02 -0.14654208146E+03  0.14816218312E+03  0.25500000000E-02 0. -1.
<mgrwt>
<rscale>  0 0.46979954E+02</rscale>
<asrwt>0</asrwt>
<pdfrwt beam="2">  1        2 0.71628313E-01 0.46979954E+02</pdfrwt>
<pdfrwt beam="1">  1       -2 0.18232816E-03 0.46979954E+02</pdfrwt>
<totfact> 0.11452700E+06</totfact>
</mgrwt>
</event>
<event>
 4    1  0.4834411E-002  0.4382173E+02  0.7818608E-02  0.1481834E+00
          2   -1    0    0    0  501  0.00000000000E+00  0.00000000000E+00  0.18951106510E+03  0.18951106512E+03  0.25500000000E-02 0.  1.
         -2   -1    0    0  501    0 -0.00000000000E+00 -0.00000000000E+00 -0.25332871907E+01  0.25332884741E+01  0.25500000000E-02 0.  1.
          2    1    1    2    0  502 -0.18799092529E+01 -0.19972017186E+02  0.54866408605E+02  0.58418647100E+02  0.25500000000E-02 0.  1.
         -2    1    1    2  502    0  0.18799092529E+01  0.19972017186E+02  0.13211136931E+03  0.13362570649E+03  0.25500000000E-02 0.  1.
<mgrwt>
<rscale>  0 0.43821733E+02</rscale>
<asrwt>0</asrwt>
<pdfrwt beam="1">  1        2 0.29155550E-01 0.43821733E+02</pdfrwt>
<pdfrwt beam="2">  1       -2 0.38973658E-03 0.43821733E+02</pdfrwt>
<totfact> 0.10037132E+06</totfact>
</mgrwt>
</event>
<event>
 4    1  0.4834411E-002  0.5361199E+02  0.7818608E-02  0.1426779E+00
          2   -1    0    0    0  501  0.00000000000E+00  0.00000000000E+00  0.72925711120E+02  0.72925711165E+02  0.25500000000E-02 0. -1.
         -2   -1    0    0  501    0 -0.00000000000E+00 -0.00000000000E+00 -0.98533331911E+01  0.98533335211E+01  0.25500000000E-02 0. -1.
          2    1    1    2    0  502  0.12994195677E+02 -0.19882469645E+02  0.50722063508E+02  0.56007940986E+02  0.25500000000E-02 0. -1.
         -2    1    1    2  502    0 -0.12994195677E+02  0.19882469645E+02  0.12350314421E+02  0.26771103699E+02  0.25500000000E-02 0. -1.
<mgrwt>
<rscale>  0 0.53611989E+02</rscale>
<asrwt>0</asrwt>
<pdfrwt beam="1">  1        2 0.11219340E-01 0.53611989E+02</pdfrwt>
<pdfrwt beam="2">  1       -2 0.15158974E-02 0.53611989E+02</pdfrwt>
<totfact> 0.46387355E+05</totfact>
</mgrwt>
</event>
<event>
 4    1  0.4834411E-002  0.4988097E+02  0.7818608E-02  0.1445985E+00
         -2   -1    0    0  501    0 -0.00000000000E+00  0.00000000000E+00  0.34460783531E+03  0.34460783531E+03  0.25500000000E-02 0.  1.
          2   -1    0    0    0  501  0.00000000000E+00 -0.00000000000E+00 -0.18050302263E+01  0.18050320275E+01  0.25500000000E-02 0.  1.
          2    1    1    2    0  502 -0.18703953024E+02 -0.15164405941E+02  0.12627052792E+03  0.12854588011E+03  0.25500000000E-02 0. -1.
         -2    1    1    2  502    0  0.18703953024E+02  0.15164405941E+02  0.21653227716E+03  0.21786698723E+03  0.25500000000E-02 0. -1.
<mgrwt>
<rscale>  0 0.49880973E+02</rscale>
<asrwt>0</asrwt>
<pdfrwt beam="2">  1        2 0.27769705E-03 0.49880973E+02</pdfrwt>
<pdfrwt beam="1">  1       -2 0.53016599E-01 0.49880973E+02</pdfrwt>
<totfact> 0.21556737E+05</totfact>
</mgrwt>
</event>
<event>
 4    1  0.4834411E-002  0.6373524E+02  0.7818608E-02  0.1382793E+00
          2   -1    0    0    0  501  0.00000000000E+00  0.00000000000E+00  0.91602045229E+02  0.91602045264E+02  0.25500000000E-02 0. -1.
         -2   -1    0    0  501    0 -0.00000000000E+00 -0.00000000000E+00 -0.11086490834E+02  0.11086491127E+02  0.25500000000E-02 0. -1.
          2    1    1    2    0  502 -0.72655163269E+01  0.24300245828E+02  0.71343640360E+02  0.75717928531E+02  0.25500000000E-02 0.  1.
         -2    1    1    2  502    0  0.72655163269E+01 -0.24300245828E+02  0.91719140352E+01  0.26970607861E+02  0.25500000000E-02 0.  1.
<mgrwt>
<rscale>  0 0.63735241E+02</rscale>
<asrwt>0</asrwt>
<pdfrwt beam="1">  1        2 0.14092622E-01 0.63735241E+02</pdfrwt>
<pdfrwt beam="2">  1       -2 0.17056141E-02 0.63735241E+02</pdfrwt>
<totfact> 0.31307886E+05</totfact>
</mgrwt>
</event>
<event>
 4    1  0.4834411E-002  0.8508418E+02  0.7818608E-02  0.1315213E+00
          2   -1    0    0    0  501  0.00000000000E+00  0.00000000000E+00  0.70570386130E+03  0.70570386131E+03  0.25500000000E-02 0. -1.
         -2   -1    0    0  501    0 -0.00000000000E+00 -0.00000000000E+00 -0.25645727557E+01  0.25645740235E+01  0.25500000000E-02 0. -1.
          2    1    1    2    0  502  0.14092779430E+02 -0.32589253900E+02  0.15649542090E+03  0.16047268513E+03  0.25500000000E-02 0. -1.
         -2    1    1    2  502    0 -0.14092779430E+02  0.32589253900E+02  0.54664386764E+03  0.54779575020E+03  0.25500000000E-02 0. -1.
<mgrwt>
<rscale>  0 0.85084178E+02</rscale>
<asrwt>0</asrwt>
<pdfrwt beam="1">  1        2 0.10856977E+00 0.85084178E+02</pdfrwt>
<pdfrwt beam="2">  1       -2 0.39454994E-03 0.85084178E+02</pdfrwt>
<totfact> 0.28494064E+05</totfact>
</mgrwt>
</event>
<event>
 4    1  0.4834411E-002  0.5535959E+02  0.7818608E-02  0.1418406E+00
         -2   -1    0    0  501    0 -0.00000000000E+00  0.00000000000E+00  0.51475886478E+00  0.51476518080E+00  0.25500000000E-02 0.  1.
          2   -1    0    0    0  501  0.00000000000E+00 -0.00000000000E+00 -0.14883985775E+04  0.14883985775E+04  0.25500000000E-02 0.  1.
          2    1    1    2    0  502 -0.27291607426E+02 -0.11615429199E+01 -0.86419144245E+03  0.86462305673E+03  0.25500000000E-02 0. -1.
         -2    1    1    2  502    0  0.27291607426E+02  0.11615429199E+01 -0.62369237617E+03  0.62429028594E+03  0.25500000000E-02 0. -1.
<mgrwt>
<rscale>  0 0.55359591E+02</rscale>
<asrwt>0</asrwt>
<pdfrwt beam="2">  1        2 0.22898095E+00 0.55359591E+02</pdfrwt>
<pdfrwt beam="1">  1       -2 0.79195349E-04 0.55359591E+02</pdfrwt>
<totfact> 0.85289245E+05</totfact>
</mgrwt>
</event>
<event>
 4    1  0.4834411E-002  0.8515658E+02  0.7818608E-02  0.1315024E+00
          2   -1    0    0    0  501  0.00000000000E+00  0.00000000000E+00  0.10951263033E+03  0.10951263036E+03  0.25500000000E-02 0.  1.
         -2   -1    0    0  501    0 -0.00000000000E+00 -0.00000000000E+00 -0.16554352674E+02  0.16554352870E+02  0.25500000000E-02 0.  1.
          2    1    1    2    0  502 -0.39376787140E+01 -0.26425142612E+02 -0.26009302871E+01  0.26843217403E+02  0.25500000000E-02 0.  1.
         -2    1    1    2  502    0  0.39376787140E+01  0.26425142612E+02  0.95559207947E+02  0.99223765831E+02  0.25500000000E-02 0.  1.
<mgrwt>
<rscale>  0 0.85156579E+02</rscale>
<asrwt>0</asrwt>
<pdfrwt beam="1">  1        2 0.16848097E-01 0.85156579E+02</pdfrwt>
<pdfrwt beam="2">  1       -2 0.25468236E-02 0.85156579E+02</pdfrwt>
<totfact> 0.15200468E+05</totfact>
</mgrwt>
</event>
<event>
 4    1  0.4834411E-002  0.4701981E+02  0.7818608E-02  0.1462112E+00
         -2   -1    0    0  501    0 -0.00000000000E+00  0.00000000000E+00  0.39519802351E+00  0.39520625031E+00  0.25500000000E-02 0.  1.
          2   -1    0    0    0  501  0.00000000000E+00 -0.00000000000E+00 -0.13985644929E+04  0.13985644929E+04  0.25500000000E-02 0.  1.
          2    1    1    2    0  502  0.17241047763E+02 -0.13511966358E+02 -0.95309677257E+03  0.95334845930E+03  0.25500000000E-02 0. -1.
         -2    1    1    2  502    0 -0.17241047763E+02  0.13511966358E+02 -0.44507252232E+03  0.44561123987E+03  0.25500000000E-02 0. -1.
<mgrwt>
<rscale>  0 0.47019812E+02</rscale>
<asrwt>0</asrwt>
<pdfrwt beam="2">  1        2 0.21515981E+00 0.47019812E+02</pdfrwt>
<pdfrwt beam="1">  1       -2 0.60801448E-04 0.47019812E+02</pdfrwt>
<totfact> 0.13038320E+06</totfact>
</mgrwt>
</event>
<event>
 4    1  0.4834411E-002  0.5930244E+02  0.7818608E-02  0.1400783E+00
          2   -1    0    0    0  501  0.00000000000E+00  0.00000000000E+00  0.16831764937E+04  0.16831764937E+04  0.25500000000E-02 0.  1.
         -2   -1    0    0  501    0 -0.00000000000E+00 -0.00000000000E+00 -0.52233959609E+00  0.52234582045E+00  0.25500000000E-02 0.  1.
          2    1    1    2    0  502 -0.19872682135E+02 -0.13846579452E+02  0.35571754888E+03  0.35654119797E+03  0.25500000000E-02 0.  1.
         -2    1    1    2  502    0  0.19872682135E+02  0.13846579452E+02  0.13269366052E+04  0.13271576415E+04  0.25500000000E-02 0.  1.
<mgrwt>
<rscale>  0 0.59302444E+02</rscale>
<asrwt>0</asrwt>
<pdfrwt beam="1">  1        2 0.25895121E+00 0.59302444E+02</pdfrwt>
<pdfrwt beam="2">  1       -2 0.80360113E-04 0.59302444E+02</pdfrwt>
<totfact> 0.67881317E+05</totfact>
</mgrwt>
</event>
<event>
 4    1  0.4834411E-002  0.1875841E+03  0.7818608E-02  0.1160659E+00
         -2   -1    0    0  501    0 -0.00000000000E+00  0.00000000000E+00  0.40124018041E+02  0.40124018122E+02  0.25500000000E-02 0. -1.
          2   -1    0    0    0  501  0.00000000000E+00 -0.00000000000E+00 -0.21924403642E+03  0.21924403644E+03  0.25500000000E-02 0. -1.
          2    1    1    2    0  502  0.30686785717E+02 -0.21275786523E+01  0.32951208429E+02  0.45077572605E+02  0.25500000000E-02 0.  1.
         -2    1    1    2  502    0 -0.30686785717E+02  0.21275786523E+01 -0.21207122681E+03  0.21429048195E+03  0.25500000000E-02 0.  1.
<mgrwt>
<rscale>  0 0.18758413E+03</rscale>
<asrwt>0</asrwt>
<pdfrwt beam="2">  1        2 0.33729851E-01 0.18758413E+03</pdfrwt>
<pdfrwt beam="1">  1       -2 0.61729260E-02 0.18758413E+03</pdfrwt>
<totfact> 0.20926459E+04</totfact>
</mgrwt>
</event>
<event>
 4    1  0.4834411E-002  0.5806702E+02  0.7818608E-02  0.1406127E+00
         -2   -1    0    0  501    0 -0.00000000000E+00  0.00000000000E+00  0.17942133803E+03  0.17942133805E+03  0.25500000000E-02 0.  1.
          2   -1    0    0    0  501  0.00000000000E+00 -0.00000000000E+00 -0.46981286020E+01  0.46981292940E+01  0.25500000000E-02 0.  1.
          2    1    1    2    0  502  0.81199184989E+01 -0.23757105395E+02  0.13359582328E+03  0.13593445898E+03  0.25500000000E-02 0.  1.
         -2    1    1    2  502    0 -0.81199184989E+01  0.23757105395E+02  0.41127386147E+02  0.48185008364E+02  0.25500000000E-02 0.  1.
<mgrwt>
<rscale>  0 0.58067016E+02</rscale>
<asrwt>0</asrwt>
<pdfrwt beam="2">  1        2 0.72278896E-03 0.58067016E+02</pdfrwt>
<pdfrwt beam="1">  1       -2 0.27603287E-01 0.58067016E+02</pdfrwt>
<totfact> 0.20337322E+05</totfact>
</mgrwt>
</event>
<event>
 4    1  0.4834411E-002  0.1388225E+03  0.7818608E-02  0.1214922E+00
         -2   -1    0    0  501    0 -0.00000000000E+00  0.00000000000E+00  0.49981382360E+01  0.49981388865E+01  0.25500000000E-02 0. -1.
          2   -1    0    0    0  501  0.00000000000E+00 -0.00000000000E+00 -0.96394296782E+03  0.96394296783E+03  0.25500000000E-02 0. -1.
          2    1    1    2    0  502 -0.15077050936E+02  0.46631713059E+02 -0.82255114880E+03  0.82400984613E+03  0.25500000000E-02 0. -1.
         -2    1    1    2  502    0  0.15077050936E+02 -0.46631713059E+02 -0.13639368079E+03  0.14493126058E+03  0.25500000000E-02 0. -1.
<mgrwt>
<rscale>  0 0.13882248E+03</rscale>
<asrwt>0</asrwt>
<pdfrwt beam="2">  1        2 0.14829877E+00 0.13882248E+03</pdfrwt>
<pdfrwt beam="1">  1       -2 0.76894516E-03 0.13882248E+03</pdfrwt>
<totfact> 0.80600835E+04</totfact>
</mgrwt>
</event>
<event>
 4    1  0.4834411E-002  0.7723668E+02  0.7818608E-02  0.1337081E+00
         -2   -1    0    0  501    0 -0.00000000000E+00  0.00000000000E+00  0.69099807198E+00  0.69100277711E+00  0.25500000000E-02 0.  1.
          2   -1    0    0    0  501  0.00000000000E+00 -0.00000000000E+00 -0.21582853681E+04  0.21582853681E+04  0.25500000000E-02 0.  1.
          2    1    1    2    0  502 -0.14403448746E+02 -0.28317315670E+02 -0.46507937792E+03  0.46616323050E+03  0.25500000000E-02 0. -1.
         -2    1    1    2  502    0  0.14403448746E+02  0.28317315670E+02 -0.16925149921E+04  0.16928131403E+04  0.25500000000E-02 0. -1.
<mgrwt>
<rscale>  0 0.77236678E+02</rscale>
<asrwt>0</asrwt>
<pdfrwt beam="2">  1        2 0.33203851E+00 0.77236678E+02</pdfrwt>
<pdfrwt beam="1">  1       -2 0.10630949E-03 0.77236678E+02</pdfrwt>
<totfact> 0.28125558E+05</totfact>
</mgrwt>
</event>
<event>
 4    1  0.4834411E-002  0.6282726E+02  0.7818608E-02  0.1386336E+00
          2   -1    0    0    0  501  0.00000000000E+00  0.00000000000E+00  0.13663352852E+03  0.13663352854E+03  0.25500000000E-02 0. -1.
         -2   -1    0    0  501    0 -0.00000000000E+00 -0.00000000000E+00 -0.72223577042E+01  0.72223581544E+01  0.25500000000E-02 0. -1.
          2    1    1    2    0  502 -0.20719788808E+02  0.20249242606E+02  0.92511575311E+02  0.96941905528E+02  0.25500000000E-02 0. -1.
         -2    1    1    2  502    0  0.20719788808E+02 -0.20249242606E+02  0.36899595506E+02  0.46913981171E+02  0.25500000000E-02 0. -1.
<mgrwt>
<rscale>  0 0.62827263E+02</rscale>
<asrwt>0</asrwt>
<pdfrwt beam="1">  1        2 0.21020540E-01 0.62827263E+02</pdfrwt>
<pdfrwt beam="2">  1       -2 0.11111322E-02 0.62827263E+02</pdfrwt>
<totfact> 0.36431698E+05</totfact>
</mgrwt>
</event>
<event>
 4    1  0.4834411E-002  0.6274884E+02  0.7818608E-02  0.1386645E+00
          2   -1    0    0    0  501  0.00000000000E+00  0.00000000000E+00  0.55820391884E+03  0.55820391884E+03  0.25500000000E-02 0. -1.
         -2   -1    0    0  501    0 -0.00000000000E+00 -0.00000000000E+00 -0.17634302369E+01  0.17634320806E+01  0.25500000000E-02 0. -1.
          2    1    1    2    0  502  0.95248149700E+01  0.19816393696E+02  0.47795378728E+03  0.47845922955E+03  0.25500000000E-02 0. -1.
         -2    1    1    2  502    0 -0.95248149700E+01 -0.19816393696E+02  0.78486701325E+02  0.81508121379E+02  0.25500000000E-02 0. -1.
<mgrwt>
<rscale>  0 0.62748839E+02</rscale>
<asrwt>0</asrwt>
<pdfrwt beam="1">  1        2 0.85877553E-01 0.62748839E+02</pdfrwt>
<pdfrwt beam="2">  1       -2 0.27129702E-03 0.62748839E+02</pdfrwt>
<totfact> 0.58751504E+05</totfact>
</mgrwt>
</event>
<event>
 4    1  0.4834411E-002  0.7517716E+02  0.7818608E-02  0.1343323E+00
         -2   -1    0    0  501    0 -0.00000000000E+00  0.00000000000E+00  0.38058376169E+02  0.38058376255E+02  0.25500000000E-02 0. -1.
          2   -1    0    0    0  501  0.00000000000E+00 -0.00000000000E+00 -0.37124584180E+02  0.37124584267E+02  0.25500000000E-02 0. -1.
          2    1    1    2    0  502  0.33043928986E+02  0.64326138366E+01  0.17190076558E+02  0.37799186528E+02  0.25500000000E-02 0. -1.
         -2    1    1    2  502    0 -0.33043928986E+02 -0.64326138366E+01 -0.16256284569E+02  0.37383773994E+02  0.25500000000E-02 0. -1.
<mgrwt>
<rscale>  0 0.75177161E+02</rscale>
<asrwt>0</asrwt>
<pdfrwt beam="2">  1        2 0.57114745E-02 0.75177161E+02</pdfrwt>
<pdfrwt beam="1">  1       -2 0.58551348E-02 0.75177161E+02</pdfrwt>
<totfact> 0.16223703E+05</totfact>
</mgrwt>
</event>
<event>
 4    1  0.4834411E-002  0.4149053E+02  0.7818608E-02  0.1497521E+00
         -2   -1    0    0  501    0 -0.00000000000E+00  0.00000000000E+00  0.13947414253E+03  0.13947414256E+03  0.25500000000E-02 0. -1.
          2   -1    0    0    0  501  0.00000000000E+00 -0.00000000000E+00 -0.30856329722E+01  0.30856340259E+01  0.25500000000E-02 0. -1.
          2    1    1    2    0  502 -0.11895200836E+00  0.20614344195E+02  0.76179254530E+02  0.78919225563E+02  0.25500000000E-02 0.  1.
         -2    1    1    2  502    0  0.11895200836E+00 -0.20614344195E+02  0.60209255031E+02  0.63640551019E+02  0.25500000000E-02 0.  1.
<mgrwt>
<rscale>  0 0.41490533E+02</rscale>
<asrwt>0</asrwt>
<pdfrwt beam="2">  1        2 0.47471290E-03 0.41490533E+02</pdfrwt>
<pdfrwt beam="1">  1       -2 0.21457558E-01 0.41490533E+02</pdfrwt>
<totfact> 0.50548595E+05</totfact>
</mgrwt>
</event>
<event>
 4    1  0.4834411E-002  0.4283689E+02  0.7818608E-02  0.1488316E+00
          2   -1    0    0    0  501  0.00000000000E+00  0.00000000000E+00  0.12088065304E+03  0.12088065307E+03  0.25500000000E-02 0.  1.
         -2   -1    0    0  501    0 -0.00000000000E+00 -0.00000000000E+00 -0.37950634087E+01  0.37950642654E+01  0.25500000000E-02 0.  1.
          2    1    1    2    0  502  0.19583925192E+02  0.79045582913E+01  0.48155363872E+02  0.52582803690E+02  0.25500000000E-02 0. -1.
         -2    1    1    2  502    0 -0.19583925192E+02 -0.79045582913E+01  0.68930225757E+02  0.72092913640E+02  0.25500000000E-02 0. -1.
<mgrwt>
<rscale>  0 0.42836891E+02</rscale>
<asrwt>0</asrwt>
<pdfrwt beam="1">  1        2 0.18597023E-01 0.42836891E+02</pdfrwt>
<pdfrwt beam="2">  1       -2 0.58385598E-03 0.42836891E+02</pdfrwt>
<totfact> 0.92759475E+05</totfact>
</mgrwt>
</event>
<event>
 4    1  0.4834411E-002  0.5787551E+02  0.7818608E-02  0.1406970E+00
         -2   -1    0    0  501    0 -0.00000000000E+00  0.00000000000E+00  0.19448308736E+01  0.19448325453E+01  0.25500000000E-02 0.  1.
          2   -1    0    0    0  501  0.00000000000E+00 -0.00000000000E+00 -0.43057389963E+03  0.43057389964E+03  0.25500000000E-02 0.  1.
          2    1    1    2    0  502 -0.28114980088E+02  0.67846451433E+01 -0.22144456816E+03  0.22332527911E+03  0.25500000000E-02 0.  1.
         -2    1    1    2  502    0  0.28114980088E+02 -0.67846451433E+01 -0.20718450060E+03  0.20919345307E+03  0.25500000000E-02 0.  1.
<mgrwt>
<rscale>  0 0.57875514E+02</rscale>
<asrwt>0</asrwt>
<pdfrwt beam="2">  1        2 0.66242063E-01 0.57875514E+02</pdfrwt>
<pdfrwt beam="1">  1       -2 0.29920522E-03 0.57875514E+02</pdfrwt>
<totfact> 0.66413437E+05</totfact>
</mgrwt>
</event>
<event>
 4    1  0.4834411E-002  0.4292101E+02  0.7818608E-02  0.1487754E+00
          2   -1    0    0    0  501  0.00000000000E+00  0.00000000000E+00  0.19355510863E+04  0.19355510863E+04  0.25500000000E-02 0. -1.
         -2   -1    0    0  501    0 -0.00000000000E+00 -0.00000000000E+00 -0.23793746583E+00  0.23795112974E+00  0.25500000000E-02 0. -1.
          2    1    1    2    0  502 -0.17686403388E+02 -0.12141035833E+02  0.94136892574E+03  0.94161333252E+03  0.25500000000E-02 0. -1.
         -2    1    1    2  502    0  0.17686403388E+02  0.12141035833E+02  0.99394422308E+03  0.99417570491E+03  0.25500000000E-02 0. -1.
<mgrwt>
<rscale>  0 0.42921013E+02</rscale>
<asrwt>0</asrwt>
<pdfrwt beam="1">  1        2 0.29777178E+00 0.42921013E+02</pdfrwt>
<pdfrwt beam="2">  1       -2 0.36607468E-04 0.42921013E+02</pdfrwt>
<totfact> 0.13811352E+06</totfact>
</mgrwt>
</event>
<event>
 4    1  0.4834411E-002  0.4785946E+02  0.7818608E-02  0.1457241E+00
         -2   -1    0    0  501    0 -0.00000000000E+00  0.00000000000E+00  0.59784395813E+01  0.59784401251E+01  0.25500000000E-02 0. -1.
          2   -1    0    0    0  501  0.00000000000E+00 -0.00000000000E+00 -0.95782850078E+02  0.95782850112E+02  0.25500000000E-02 0. -1.
          2    1    1    2    0  502  0.19388108172E+02  0.68388453620E+01 -0.70940199381E+02  0.73859193328E+02  0.25500000000E-02 0. -1.
         -2    1    1    2  502    0 -0.19388108172E+02 -0.68388453620E+01 -0.18864211116E+02  0.27902096909E+02  0.25500000000E-02 0. -1.
<mgrwt>
<rscale>  0 0.47859461E+02</rscale>
<asrwt>0</asrwt>
<pdfrwt beam="2">  1        2 0.14735822E-01 0.47859461E+02</pdfrwt>
<pdfrwt beam="1">  1       -2 0.91976005E-03 0.47859461E+02</pdfrwt>
<totfact> 0.66134057E+05</totfact>
</mgrwt>
</event>
<event>
 4    1  0.4834411E-002  0.7220737E+02  0.7818608E-02  0.1352744E+00
          2   -1    0    0    0  501  0.00000000000E+00  0.00000000000E+00  0.13643560809E+04  0.13643560809E+04  0.25500000000E-02 0.  1.
         -2   -1    0    0  501    0 -0.00000000000E+00 -0.00000000000E+00 -0.95537659092E+00  0.95537999402E+00  0.25500000000E-02 0.  1.
          2    1    1    2    0  502  0.29903050866E+02  0.16245398466E+02  0.90967613515E+03  0.91031246080E+03  0.25500000000E-02 0.  1.
         -2    1    1    2  502    0 -0.29903050866E+02 -0.16245398466E+02  0.45372456917E+03  0.45499900011E+03  0.25500000000E-02 0.  1.
<mgrwt>
<rscale>  0 0.72207373E+02</rscale>
<asrwt>0</asrwt>
<pdfrwt beam="1">  1        2 0.20990124E+00 0.72207373E+02</pdfrwt>
<pdfrwt beam="2">  1       -2 0.14698106E-03 0.72207373E+02</pdfrwt>
<totfact> 0.44611632E+05</totfact>
</mgrwt>
</event>
<event>
 4    1  0.4834411E-002  0.4266522E+02  0.7818608E-02  0.1489467E+00
         -2   -1    0    0  501    0 -0.00000000000E+00  0.00000000000E+00  0.25784450007E+02  0.25784450133E+02  0.25500000000E-02 0. -1.
          2   -1    0    0    0  501  0.00000000000E+00 -0.00000000000E+00 -0.17649406097E+02  0.17649406281E+02  0.25500000000E-02 0. -1.
          2    1    1    2    0  502  0.37345630799E+01  0.20912933252E+02  0.60474223734E+01  0.22087758204E+02  0.25500000000E-02 0. -1.
         -2    1    1    2  502    0 -0.37345630799E+01 -0.20912933252E+02  0.20876215361E+01  0.21346098210E+02  0.25500000000E-02 0. -1.
<mgrwt>
<rscale>  0 0.42665219E+02</rscale>
<asrwt>0</asrwt>
<pdfrwt beam="2">  1        2 0.27152933E-02 0.42665219E+02</pdfrwt>
<pdfrwt beam="1">  1       -2 0.39668385E-02 0.42665219E+02</pdfrwt>
<totfact> 0.65660031E+05</totfact>
</mgrwt>
</event>
<event>
 4    1  0.4834411E-002  0.5466324E+02  0.7818608E-02  0.1421698E+00
          2   -1    0    0    0  501  0.00000000000E+00  0.00000000000E+00  0.87110180719E+03  0.87110180720E+03  0.25500000000E-02 0.  1.
         -2   -1    0    0  501    0 -0.00000000000E+00 -0.00000000000E+00 -0.85755290386E+00  0.85755669516E+00  0.25500000000E-02 0.  1.
          2    1    1    2    0  502  0.44658642377E+01  0.24732240035E+02  0.26377188045E+03  0.26496647441E+03  0.25500000000E-02 0. -1.
         -2    1    1    2  502    0 -0.44658642377E+01 -0.24732240035E+02  0.60647237384E+03  0.60699288948E+03  0.25500000000E-02 0. -1.
<mgrwt>
<rscale>  0 0.54663243E+02</rscale>
<asrwt>0</asrwt>
<pdfrwt beam="1">  1        2 0.13401612E+00 0.54663243E+02</pdfrwt>
<pdfrwt beam="2">  1       -2 0.13193106E-03 0.54663243E+02</pdfrwt>
<totfact> 0.91710390E+05</totfact>
</mgrwt>
</event>
<event>
 4    1  0.4834411E-002  0.1196625E+03  0.7818608E-02  0.1243655E+00
          2   -1    0    0    0  501  0.00000000000E+00  0.00000000000E+00  0.43853978411E+02  0.43853978485E+02  0.25500000000E-02 0. -1.
         -2   -1    0    0  501    0 -0.00000000000E+00 -0.00000000000E+00 -0.81629528218E+02  0.81629528258E+02  0.25500000000E-02 0. -1.
          2    1    1    2    0  502  0.30223829467E+02  0.97419359267E+01  0.34287880820E+02  0.46733756117E+02  0.25500000000E-02 0.  1.
         -2    1    1    2  502    0 -0.30223829467E+02 -0.97419359267E+01 -0.72063430628E+02  0.78749750625E+02  0.25500000000E-02 0.  1.
<mgrwt>
<rscale>  0 0.11966252E+03</rscale>
<asrwt>0</asrwt>
<pdfrwt beam="1">  1        2 0.67467659E-02 0.11966252E+03</pdfrwt>
<pdfrwt beam="2">  1       -2 0.12558389E-01 0.11966252E+03</pdfrwt>
<totfact> 0.43570685E+04</totfact>
</mgrwt>
</event>
<event>
 4    1  0.4834411E-002  0.4759165E+02  0.7818608E-02  0.1458782E+00
          2   -1    0    0    0  501  0.00000000000E+00  0.00000000000E+00  0.21847319877E+04  0.21847319877E+04  0.25500000000E-02 0.  1.
         -2   -1    0    0  501    0 -0.00000000000E+00 -0.00000000000E+00 -0.25917488176E+00  0.25918742607E+00  0.25500000000E-02 0.  1.
          2    1    1    2    0  502 -0.15958545350E+02  0.17567515010E+02  0.10133999853E+04  0.10136778694E+04  0.25500000000E-02 0. -1.
         -2    1    1    2  502    0  0.15958545350E+02 -0.17567515010E+02  0.11710728275E+04  0.11713133057E+04  0.25500000000E-02 0. -1.
<mgrwt>
<rscale>  0 0.47591653E+02</rscale>
<asrwt>0</asrwt>
<pdfrwt beam="1">  1        2 0.33610721E+00 0.47591653E+02</pdfrwt>
<pdfrwt beam="2">  1       -2 0.39874665E-04 0.47591653E+02</pdfrwt>
<totfact> 0.95212861E+05</totfact>
</mgrwt>
</event>
<event>
 4    1  0.4834411E-002  0.5582017E+02  0.7818608E-02  0.1416260E+00
         -2   -1    0    0  501    0 -0.00000000000E+00  0.00000000000E+00  0.42138486444E+00  0.42139258000E+00  0.25500000000E-02 0. -1.
          2   -1    0    0    0  501  0.00000000000E+00 -0.00000000000E+00 -0.18485852188E+04  0.18485852188E+04  0.25500000000E-02 0. -1.
          2    1    1    2    0  502 -0.19161873206E+02 -0.20133568053E+02 -0.10081095209E+04  0.10084926098E+04  0.25500000000E-02 0.  1.
         -2    1    1    2  502    0  0.19161873206E+02  0.20133568053E+02 -0.84005431303E+03  0.84051400155E+03  0.25500000000E-02 0.  1.
<mgrwt>
<rscale>  0 0.55820174E+02</rscale>
<asrwt>0</asrwt>
<pdfrwt beam="2">  1        2 0.28439123E+00 0.55820174E+02</pdfrwt>
<pdfrwt beam="1">  1       -2 0.64830515E-04 0.55820174E+02</pdfrwt>
<totfact> 0.74485737E+05</totfact>
</mgrwt>
</event>
<event>
 4    1  0.4834411E-002  0.8768682E+02  0.7818608E-02  0.1308552E+00
         -2   -1    0    0  501    0 -0.00000000000E+00  0.00000000000E+00  0.37191662311E+02  0.37191662399E+02  0.25500000000E-02 0. -1.
          2   -1    0    0    0  501  0.00000000000E+00 -0.00000000000E+00 -0.51684823409E+02  0.51684823472E+02  0.25500000000E-02 0. -1.
          2    1    1    2    0  502 -0.21930291505E+01 -0.40331490089E+02  0.10037817848E+02  0.41619661980E+02  0.25500000000E-02 0. -1.
         -2    1    1    2  502    0  0.21930291505E+01  0.40331490089E+02 -0.24530978946E+02  0.47256823891E+02  0.25500000000E-02 0. -1.
<mgrwt>
<rscale>  0 0.87686818E+02</rscale>
<asrwt>0</asrwt>
<pdfrwt beam="2">  1        2 0.79515113E-02 0.87686818E+02</pdfrwt>
<pdfrwt beam="1">  1       -2 0.57217942E-02 0.87686818E+02</pdfrwt>
<totfact> 0.11387799E+05</totfact>
</mgrwt>
</event>
<event>
 4    1  0.4834411E-002  0.6750425E+02  0.7818608E-02  0.1368792E+00
         -2   -1    0    0  501    0 -0.00000000000E+00  0.00000000000E+00  0.58134322433E+03  0.58134322433E+03  0.25500000000E-02 0. -1.
          2   -1    0    0    0  501  0.00000000000E+00 -0.00000000000E+00 -0.19596091852E+01  0.19596108444E+01  0.25500000000E-02 0. -1.
          2    1    1    2    0  502  0.15882697304E+02  0.28523278386E+02  0.21567713356E+03  0.21813404923E+03  0.25500000000E-02 0. -1.
         -2    1    1    2  502    0 -0.15882697304E+02 -0.28523278386E+02  0.36370648158E+03  0.36516878595E+03  0.25500000000E-02 0. -1.
<mgrwt>
<rscale>  0 0.67504252E+02</rscale>
<asrwt>0</asrwt>
<pdfrwt beam="2">  1        2 0.30147783E-03 0.67504252E+02</pdfrwt>
<pdfrwt beam="1">  1       -2 0.89437608E-01 0.67504252E+02</pdfrwt>
<totfact> 0.69399980E+04</totfact>
</mgrwt>
</event>
<event>
 4    1  0.4834411E-002  0.5372111E+02  0.7818608E-02  0.1426245E+00
         -2   -1    0    0  501    0 -0.00000000000E+00  0.00000000000E+00  0.35262599141E+02  0.35262599234E+02  0.25500000000E-02 0. -1.
          2   -1    0    0    0  501  0.00000000000E+00 -0.00000000000E+00 -0.20460469541E+02  0.20460469700E+02  0.25500000000E-02 0. -1.
          2    1    1    2    0  502 -0.39537997329E+01  0.21479983934E+02  0.23619176091E+02  0.32169670931E+02  0.25500000000E-02 0. -1.
         -2    1    1    2  502    0  0.39537997329E+01 -0.21479983934E+02 -0.88170464901E+01  0.23553398002E+02  0.25500000000E-02 0. -1.
<mgrwt>
<rscale>  0 0.53721107E+02</rscale>
<asrwt>0</asrwt>
<pdfrwt beam="2">  1        2 0.31477646E-02 0.53721107E+02</pdfrwt>
<pdfrwt beam="1">  1       -2 0.54250152E-02 0.53721107E+02</pdfrwt>
<totfact> 0.36447704E+05</totfact>
</mgrwt>
</event>
<event>
 4    1  0.4834411E-002  0.5908439E+02  0.7818608E-02  0.1401715E+00
         -2   -1    0    0  501    0 -0.00000000000E+00  0.00000000000E+00  0.71911458824E+02  0.71911458869E+02  0.25500000000E-02 0. -1.
          2   -1    0    0    0  501  0.00000000000E+00 -0.00000000000E+00 -0.12136332980E+02  0.12136333247E+02  0.25500000000E-02 0. -1.
          2    1    1    2    0  502  0.24333928324E+01  0.20755872193E+02  0.59590789565E+02  0.63148949624E+02  0.25500000000E-02 0.  1.
         -2    1    1    2  502    0 -0.24333928324E+01 -0.20755872193E+02  0.18433627951E+00  0.20898842492E+02  0.25500000000E-02 0.  1.
<mgrwt>
<rscale>  0 0.59084395E+02</rscale>
<asrwt>0</asrwt>
<pdfrwt beam="2">  1        2 0.18671282E-02 0.59084395E+02</pdfrwt>
<pdfrwt beam="1">  1       -2 0.11063301E-01 0.59084395E+02</pdfrwt>
<totfact> 0.25345548E+05</totfact>
</mgrwt>
</event>
<event>
 4    1  0.4834411E-002  0.5260861E+02  0.7818608E-02  0.1431759E+00
         -2   -1    0    0  501    0 -0.00000000000E+00  0.00000000000E+00  0.96133376124E+00  0.96133714326E+00  0.25500000000E-02 0.  1.
          2   -1    0    0    0  501  0.00000000000E+00 -0.00000000000E+00 -0.71974507848E+03  0.71974507849E+03  0.25500000000E-02 0.  1.
          2    1    1    2    0  502 -0.12726043058E+02  0.22355548763E+02 -0.28411528770E+03  0.28527744293E+03  0.25500000000E-02 0. -1.
         -2    1    1    2  502    0  0.12726043058E+02 -0.22355548763E+02 -0.43466845702E+03  0.43542897270E+03  0.25500000000E-02 0. -1.
<mgrwt>
<rscale>  0 0.52608610E+02</rscale>
<asrwt>0</asrwt>
<pdfrwt beam="2">  1        2 0.11072958E+00 0.52608610E+02</pdfrwt>
<pdfrwt beam="1">  1       -2 0.14789834E-03 0.52608610E+02</pdfrwt>
<totfact> 0.97610465E+05</totfact>
</mgrwt>
</event>
<event>
 4    1  0.4834411E-002  0.5294499E+02  0.7818608E-02  0.1430075E+00
          2   -1    0    0    0  501  0.00000000000E+00  0.00000000000E+00  0.11519758499E+02  0.11519758782E+02  0.25500000000E-02 0. -1.
         -2   -1    0    0  501    0 -0.00000000000E+00 -0.00000000000E+00 -0.60833990285E+02  0.60833990339E+02  0.25500000000E-02 0. -1.
          2    1    1    2    0  502 -0.13183452871E+02  0.20397241839E+02 -0.39051203888E+02  0.45987470422E+02  0.25500000000E-02 0.  1.
         -2    1    1    2  502    0  0.13183452871E+02 -0.20397241839E+02 -0.10263027898E+02  0.26366278698E+02  0.25500000000E-02 0.  1.
<mgrwt>
<rscale>  0 0.52944986E+02</rscale>
<asrwt>0</asrwt>
<pdfrwt beam="1">  1        2 0.17722706E-02 0.52944986E+02</pdfrwt>
<pdfrwt beam="2">  1       -2 0.93590753E-02 0.52944986E+02</pdfrwt>
<totfact> 0.34258994E+05</totfact>
</mgrwt>
</event>
<event>
 4    1  0.4834411E-002  0.5151604E+02  0.7818608E-02  0.1437332E+00
         -2   -1    0    0  501    0 -0.00000000000E+00  0.00000000000E+00  0.96649466409E+00  0.96649802804E+00  0.25500000000E-02 0.  1.
          2   -1    0    0    0  501  0.00000000000E+00 -0.00000000000E+00 -0.68647492366E+03  0.68647492367E+03  0.25500000000E-02 0.  1.
          2    1    1    2    0  502  0.21577386738E+02  0.55916673786E+01 -0.51500591437E+03  0.51548806213E+03  0.25500000000E-02 0.  1.
         -2    1    1    2  502    0 -0.21577386738E+02 -0.55916673786E+01 -0.17050251463E+03  0.17195335956E+03  0.25500000000E-02 0.  1.
<mgrwt>
<rscale>  0 0.51516037E+02</rscale>
<asrwt>0</asrwt>
<pdfrwt beam="2">  1        2 0.10561114E+00 0.51516037E+02</pdfrwt>
<pdfrwt beam="1">  1       -2 0.14869229E-03 0.51516037E+02</pdfrwt>
<totfact> 0.10175168E+06</totfact>
</mgrwt>
</event>
<event>
 4    1  0.4834411E-002  0.9404427E+02  0.7818608E-02  0.1293343E+00
          2   -1    0    0    0  501  0.00000000000E+00  0.00000000000E+00  0.44348506992E+01  0.44348514323E+01  0.25500000000E-02 0.  1.
         -2   -1    0    0  501    0 -0.00000000000E+00 -0.00000000000E+00 -0.49856944252E+03  0.49856944253E+03  0.25500000000E-02 0.  1.
          2    1    1    2    0  502  0.36680315187E+02 -0.15226554672E+02 -0.11241577536E+03  0.11922499757E+03  0.25500000000E-02 0.  1.
         -2    1    1    2  502    0 -0.36680315187E+02  0.15226554672E+02 -0.38171881646E+03  0.38377929639E+03  0.25500000000E-02 0.  1.
<mgrwt>
<rscale>  0 0.94044271E+02</rscale>
<asrwt>0</asrwt>
<pdfrwt beam="1">  1        2 0.68228517E-03 0.94044271E+02</pdfrwt>
<pdfrwt beam="2">  1       -2 0.76702947E-01 0.94044271E+02</pdfrwt>
<totfact> 0.33577287E+04</totfact>
</mgrwt>
</event>
<event>
 4    1  0.4834411E-002  0.4855088E+02  0.7818608E-02  0.1453318E+00
          2   -1    0    0    0  501  0.00000000000E+00  0.00000000000E+00  0.10461814382E+01  0.10461845459E+01  0.25500000000E-02 0. -1.
         -2   -1    0    0  501    0 -0.00000000000E+00 -0.00000000000E+00 -0.56328280849E+03  0.56328280849E+03  0.25500000000E-02 0. -1.
          2    1    1    2    0  502  0.21054263269E+02  0.11861907422E+02 -0.25433377075E+03  0.25547926296E+03  0.25500000000E-02 0. -1.
         -2    1    1    2  502    0 -0.21054263269E+02 -0.11861907422E+02 -0.30790285630E+03  0.30884973008E+03  0.25500000000E-02 0. -1.
<mgrwt>
<rscale>  0 0.48550876E+02</rscale>
<asrwt>0</asrwt>
<pdfrwt beam="1">  1        2 0.16095168E-03 0.48550876E+02</pdfrwt>
<pdfrwt beam="2">  1       -2 0.86658652E-01 0.48550876E+02</pdfrwt>
<totfact> 0.16187921E+05</totfact>
</mgrwt>
</event>
<event>
 4    1  0.4834411E-002  0.5175723E+02  0.7818608E-02  0.1436088E+00
         -2   -1    0    0  501    0 -0.00000000000E+00  0.00000000000E+00  0.12370240197E+01  0.12370266479E+01  0.25500000000E-02 0.  1.
          2   -1    0    0    0  501  0.00000000000E+00 -0.00000000000E+00 -0.54138159437E+03  0.54138159438E+03  0.25500000000E-02 0.  1.
          2    1    1    2    0  502  0.13248178444E+02  0.20551208975E+02 -0.18121445582E+03  0.18285662533E+03  0.25500000000E-02 0.  1.
         -2    1    1    2  502    0 -0.13248178444E+02 -0.20551208975E+02 -0.35893011453E+03  0.35976199569E+03  0.25500000000E-02 0.  1.
<mgrwt>
<rscale>  0 0.51757231E+02</rscale>
<asrwt>0</asrwt>
<pdfrwt beam="2">  1        2 0.83289287E-01 0.51757231E+02</pdfrwt>
<pdfrwt beam="1">  1       -2 0.19031202E-03 0.51757231E+02</pdfrwt>
<totfact> 0.94437058E+05</totfact>
</mgrwt>
</event>
<event>
 4    1  0.4834411E-002  0.1423092E+03  0.7818608E-02  0.1210255E+00
          2   -1    0    0    0  501  0.00000000000E+00  0.00000000000E+00  0.26992447446E+03  0.26992447448E+03  0.25500000000E-02 0.  1.
         -2   -1    0    0  501    0 -0.00000000000E+00 -0.00000000000E+00 -0.18757021507E+02  0.18757021681E+02  0.25500000000E-02 0.  1.
          2    1    1    2    0  502 -0.65296102281E+02  0.10028004999E+02  0.71957908480E+02  0.97683583353E+02  0.25500000000E-02 0.  1.
         -2    1    1    2  502    0  0.65296102281E+02 -0.10028004999E+02  0.17920954448E+03  0.19099791280E+03  0.25500000000E-02 0.  1.
<mgrwt>
<rscale>  0 0.14230923E+03</rscale>
<asrwt>0</asrwt>
<pdfrwt beam="1">  1        2 0.41526838E-01 0.14230923E+03</pdfrwt>
<pdfrwt beam="2">  1       -2 0.28856959E-02 0.14230923E+03</pdfrwt>
<totfact> 0.50850589E+04</totfact>
</mgrwt>
</event>
<event>
 4    1  0.4834411E-002  0.4644474E+02  0.7818608E-02  0.1465519E+00
          2   -1    0    0    0  501  0.00000000000E+00  0.00000000000E+00  0.13679411578E+03  0.13679411580E+03  0.25500000000E-02 0.  1.
         -2   -1    0    0  501    0 -0.00000000000E+00 -0.00000000000E+00 -0.39422632329E+01  0.39422640576E+01  0.25500000000E-02 0.  1.
          2    1    1    2    0  502  0.21324471605E+02 -0.62243284546E+01  0.45918208472E+02  0.51009383742E+02  0.25500000000E-02 0. -1.
         -2    1    1    2  502    0 -0.21324471605E+02  0.62243284546E+01  0.86933644073E+02  0.89726996118E+02  0.25500000000E-02 0. -1.
<mgrwt>
<rscale>  0 0.46444740E+02</rscale>
<asrwt>0</asrwt>
<pdfrwt beam="1">  1        2 0.21045248E-01 0.46444740E+02</pdfrwt>
<pdfrwt beam="2">  1       -2 0.60650212E-03 0.46444740E+02</pdfrwt>
<totfact> 0.78586743E+05</totfact>
</mgrwt>
</event>
<event>
 4    1  0.4834411E-002  0.4151927E+02  0.7818608E-02  0.1497320E+00
          2   -1    0    0    0  501  0.00000000000E+00  0.00000000000E+00  0.19548631698E+02  0.19548631864E+02  0.25500000000E-02 0.  1.
         -2   -1    0    0  501    0 -0.00000000000E+00 -0.00000000000E+00 -0.22045661852E+02  0.22045662000E+02  0.25500000000E-02 0.  1.
          2    1    1    2    0  502 -0.20362959889E+01 -0.20515953674E+02  0.11872702311E+01  0.20650919438E+02  0.25500000000E-02 0.  1.
         -2    1    1    2  502    0  0.20362959889E+01  0.20515953674E+02 -0.36843003856E+01  0.20943374426E+02  0.25500000000E-02 0.  1.
<mgrwt>
<rscale>  0 0.41519274E+02</rscale>
<asrwt>0</asrwt>
<pdfrwt beam="1">  1        2 0.30074818E-02 0.41519274E+02</pdfrwt>
<pdfrwt beam="2">  1       -2 0.33916403E-02 0.41519274E+02</pdfrwt>
<totfact> 0.71430188E+05</totfact>
</mgrwt>
</event>
<event>
 4    1  0.4834411E-002  0.5619514E+02  0.7818608E-02  0.1414530E+00
         -2   -1    0    0  501    0 -0.00000000000E+00  0.00000000000E+00  0.35349586308E+00  0.35350506038E+00  0.25500000000E-02 0. -1.
          2   -1    0    0    0  501  0.00000000000E+00 -0.00000000000E+00 -0.22333020845E+04  0.22333020845E+04  0.25500000000E-02 0. -1.
          2    1    1    2    0  502  0.27802955119E+02  0.79565413491E-02 -0.95516838268E+03  0.95557294000E+03  0.25500000000E-02 0. -1.
         -2    1    1    2  502    0 -0.27802955119E+02 -0.79565413491E-02 -0.12777802059E+04  0.12780826495E+04  0.25500000000E-02 0. -1.
<mgrwt>
<rscale>  0 0.56195136E+02</rscale>
<asrwt>0</asrwt>
<pdfrwt beam="2">  1        2 0.34357364E+00 0.56195136E+02</pdfrwt>
<pdfrwt beam="1">  1       -2 0.54386475E-04 0.56195136E+02</pdfrwt>
<totfact> 0.61146986E+05</totfact>
</mgrwt>
</event>
<event>
 4    1  0.4834411E-002  0.1455717E+03  0.7818608E-02  0.1206023E+00
         -2   -1    0    0  501    0 -0.00000000000E+00  0.00000000000E+00  0.16107689222E+02  0.16107689424E+02  0.25500000000E-02 0.  1.
          2   -1    0    0    0  501  0.00000000000E+00 -0.00000000000E+00 -0.32889748157E+03  0.32889748158E+03  0.25500000000E-02 0.  1.
          2    1    1    2    0  502  0.21945748644E+02  0.44824599052E+02 -0.30831351839E+02  0.58663726667E+02  0.25500000000E-02 0. -1.
         -2    1    1    2  502    0 -0.21945748644E+02 -0.44824599052E+02 -0.28195844051E+03  0.28634144433E+03  0.25500000000E-02 0. -1.
<mgrwt>
<rscale>  0 0.14557168E+03</rscale>
<asrwt>0</asrwt>
<pdfrwt beam="2">  1        2 0.50599608E-01 0.14557168E+03</pdfrwt>
<pdfrwt beam="1">  1       -2 0.24781063E-02 0.14557168E+03</pdfrwt>
<totfact> 0.51671783E+04</totfact>
</mgrwt>
</event>
<event>
 4    1  0.4834411E-002  0.4712629E+02  0.7818608E-02  0.1461488E+00
         -2   -1    0    0  501    0 -0.00000000000E+00  0.00000000000E+00  0.14862031093E+03  0.14862031095E+03  0.25500000000E-02 0. -1.
          2   -1    0    0    0  501  0.00000000000E+00 -0.00000000000E+00 -0.37358405316E+01  0.37358414019E+01  0.25500000000E-02 0. -1.
          2    1    1    2    0  502  0.19251012256E+02 -0.82123570142E+01  0.10743827935E+03  0.10945788303E+03  0.25500000000E-02 0. -1.
         -2    1    1    2  502    0 -0.19251012256E+02  0.82123570142E+01  0.37446191044E+02  0.42898269322E+02  0.25500000000E-02 0. -1.
<mgrwt>
<rscale>  0 0.47126292E+02</rscale>
<asrwt>0</asrwt>
<pdfrwt beam="2">  1        2 0.57474484E-03 0.47126292E+02</pdfrwt>
<pdfrwt beam="1">  1       -2 0.22864660E-01 0.47126292E+02</pdfrwt>
<totfact> 0.36369247E+05</totfact>
</mgrwt>
</event>
<event>
 4    1  0.4834411E-002  0.1276746E+03  0.7818608E-02  0.1230948E+00
          2   -1    0    0    0  501  0.00000000000E+00  0.00000000000E+00  0.32545241363E+04  0.32545241363E+04  0.25500000000E-02 0.  1.
         -2   -1    0    0  501    0 -0.00000000000E+00 -0.00000000000E+00 -0.12521634042E+01  0.12521660007E+01  0.25500000000E-02 0.  1.
          2    1    1    2    0  502 -0.45843150426E+02  0.43704669763E+02  0.14234175600E+04  0.14248260395E+04  0.25500000000E-02 0.  1.
         -2    1    1    2  502    0  0.45843150426E+02 -0.43704669763E+02  0.18298544129E+04  0.18309502628E+04  0.25500000000E-02 0.  1.
<mgrwt>
<rscale>  0 0.12767459E+03</rscale>
<asrwt>0</asrwt>
<pdfrwt beam="1">  1        2 0.50069834E+00 0.12767459E+03</pdfrwt>
<pdfrwt beam="2">  1       -2 0.19263983E-03 0.12767459E+03</pdfrwt>
<totfact> 0.32417843E+04</totfact>
</mgrwt>
</event>
<event>
 4    1  0.4834411E-002  0.4821036E+02  0.7818608E-02  0.1455240E+00
          2   -1    0    0    0  501  0.00000000000E+00  0.00000000000E+00  0.85098431224E+02  0.85098431263E+02  0.25500000000E-02 0. -1.
         -2   -1    0    0  501    0 -0.00000000000E+00 -0.00000000000E+00 -0.68280899533E+01  0.68280904295E+01  0.25500000000E-02 0. -1.
          2    1    1    2    0  502  0.21004317005E+02  0.92500792278E+01  0.53187818691E+02  0.57928312268E+02  0.25500000000E-02 0. -1.
         -2    1    1    2  502    0 -0.21004317005E+02 -0.92500792278E+01  0.25082522580E+02  0.33998209424E+02  0.25500000000E-02 0. -1.
<mgrwt>
<rscale>  0 0.48210363E+02</rscale>
<asrwt>0</asrwt>
<pdfrwt beam="1">  1        2 0.13092067E-01 0.48210363E+02</pdfrwt>
<pdfrwt beam="2">  1       -2 0.10504754E-02 0.48210363E+02</pdfrwt>
<totfact> 0.63058944E+05</totfact>
</mgrwt>
</event>
<event>
 4    1  0.4834411E-002  0.5314800E+02  0.7818608E-02  0.1429066E+00
          2   -1    0    0    0  501  0.00000000000E+00  0.00000000000E+00  0.31166033194E+03  0.31166033195E+03  0.25500000000E-02 0. -1.
         -2   -1    0    0  501    0 -0.00000000000E+00 -0.00000000000E+00 -0.22658556452E+01  0.22658570801E+01  0.25500000000E-02 0. -1.
          2    1    1    2    0  502 -0.26298773660E+02 -0.68454579859E+00  0.17686363136E+03  0.17880950256E+03  0.25500000000E-02 0.  1.
         -2    1    1    2  502    0  0.26298773660E+02  0.68454579859E+00  0.13253084493E+03  0.13511668648E+03  0.25500000000E-02 0.  1.
<mgrwt>
<rscale>  0 0.53148003E+02</rscale>
<asrwt>0</asrwt>
<pdfrwt beam="1">  1        2 0.47947726E-01 0.53148003E+02</pdfrwt>
<pdfrwt beam="2">  1       -2 0.34859341E-03 0.53148003E+02</pdfrwt>
<totfact> 0.73601995E+05</totfact>
</mgrwt>
</event>
<event>
 4    1  0.4834411E-002  0.4264978E+02  0.7818608E-02  0.1489571E+00
         -2   -1    0    0  501    0 -0.00000000000E+00  0.00000000000E+00  0.25726922047E+02  0.25726922174E+02  0.25500000000E-02 0.  1.
          2   -1    0    0    0  501  0.00000000000E+00 -0.00000000000E+00 -0.17676075915E+02  0.17676076099E+02  0.25500000000E-02 0.  1.
          2    1    1    2    0  502  0.10438365886E+01 -0.21086286037E+02  0.70834839831E+01  0.22268740546E+02  0.25500000000E-02 0. -1.
         -2    1    1    2  502    0 -0.10438365886E+01  0.21086286037E+02  0.96736214909E+00  0.21134257727E+02  0.25500000000E-02 0. -1.
<mgrwt>
<rscale>  0 0.42649785E+02</rscale>
<asrwt>0</asrwt>
<pdfrwt beam="2">  1        2 0.27193963E-02 0.42649785E+02</pdfrwt>
<pdfrwt beam="1">  1       -2 0.39579880E-02 0.42649785E+02</pdfrwt>
<totfact> 0.65735380E+05</totfact>
</mgrwt>
</event>
<event>
 4    1  0.4834411E-002  0.5760374E+02  0.7818608E-02  0.1408172E+00
          2   -1    0    0    0  501  0.00000000000E+00  0.00000000000E+00  0.90254469973E+03  0.90254469973E+03  0.25500000000E-02 0.  1.
         -2   -1    0    0  501    0 -0.00000000000E+00 -0.00000000000E+00 -0.91911900276E+00  0.91912254011E+00  0.25500000000E-02 0.  1.
          2    1    1    2    0  502  0.25816801439E+02 -0.97926512525E+01  0.57933102966E+03  0.57998865953E+03  0.25500000000E-02 0. -1.
         -2    1    1    2  502    0 -0.25816801439E+02  0.97926512525E+01  0.32229455106E+03  0.32347516274E+03  0.25500000000E-02 0. -1.
<mgrwt>
<rscale>  0 0.57603735E+02</rscale>
<asrwt>0</asrwt>
<pdfrwt beam="1">  1        2 0.13885262E+00 0.57603735E+02</pdfrwt>
<pdfrwt beam="2">  1       -2 0.14140361E-03 0.57603735E+02</pdfrwt>
<totfact> 0.80786747E+05</totfact>
</mgrwt>
</event>
<event>
 4    1  0.4834411E-002  0.6343988E+02  0.7818608E-02  0.1383938E+00
         -2   -1    0    0  501    0 -0.00000000000E+00  0.00000000000E+00  0.16347361402E+02  0.16347361601E+02  0.25500000000E-02 0. -1.
          2   -1    0    0    0  501  0.00000000000E+00 -0.00000000000E+00 -0.61548447676E+02  0.61548447729E+02  0.25500000000E-02 0. -1.
          2    1    1    2    0  502  0.50214813667E+01 -0.25310217982E+02  0.51287408151E-01  0.25803585920E+02  0.25500000000E-02 0.  1.
         -2    1    1    2  502    0 -0.50214813667E+01  0.25310217982E+02 -0.45252373682E+02  0.52092223410E+02  0.25500000000E-02 0.  1.
<mgrwt>
<rscale>  0 0.63439884E+02</rscale>
<asrwt>0</asrwt>
<pdfrwt beam="2">  1        2 0.94689919E-02 0.63439884E+02</pdfrwt>
<pdfrwt beam="1">  1       -2 0.25149787E-02 0.63439884E+02</pdfrwt>
<totfact> 0.28756638E+05</totfact>
</mgrwt>
</event>
<event>
 4    1  0.4834411E-002  0.5272259E+02  0.7818608E-02  0.1431186E+00
         -2   -1    0    0  501    0 -0.00000000000E+00  0.00000000000E+00  0.93211935855E+02  0.93211935889E+02  0.25500000000E-02 0.  1.
          2   -1    0    0    0  501  0.00000000000E+00 -0.00000000000E+00 -0.74552443582E+01  0.74552447943E+01  0.25500000000E-02 0.  1.
          2    1    1    2    0  502  0.71433773824E+01 -0.24981089258E+02  0.51382058084E+02  0.57577760988E+02  0.25500000000E-02 0. -1.
         -2    1    1    2  502    0 -0.71433773824E+01  0.24981089258E+02  0.34374633412E+02  0.43089419695E+02  0.25500000000E-02 0. -1.
<mgrwt>
<rscale>  0 0.52722587E+02</rscale>
<asrwt>0</asrwt>
<pdfrwt beam="2">  1        2 0.11469607E-02 0.52722587E+02</pdfrwt>
<pdfrwt beam="1">  1       -2 0.14340297E-01 0.52722587E+02</pdfrwt>
<totfact> 0.31556485E+05</totfact>
</mgrwt>
</event>
<event>
 4    1  0.4834411E-002  0.8822115E+02  0.7818608E-02  0.1307218E+00
         -2   -1    0    0  501    0 -0.00000000000E+00  0.00000000000E+00  0.60589187459E+00  0.60589724062E+00  0.25500000000E-02 0. -1.
          2   -1    0    0    0  501  0.00000000000E+00 -0.00000000000E+00 -0.32113554538E+04  0.32113554538E+04  0.25500000000E-02 0. -1.
          2    1    1    2    0  502 -0.42261117318E+02  0.11378260559E+02 -0.14050445893E+04  0.14057260632E+04  0.25500000000E-02 0.  1.
         -2    1    1    2  502    0  0.42261117318E+02 -0.11378260559E+02 -0.18057049726E+04  0.18062352879E+04  0.25500000000E-02 0.  1.
<mgrwt>
<rscale>  0 0.88221149E+02</rscale>
<asrwt>0</asrwt>
<pdfrwt beam="2">  1        2 0.49404106E+00 0.88221149E+02</pdfrwt>
<pdfrwt beam="1">  1       -2 0.93217119E-04 0.88221149E+02</pdfrwt>
<totfact> 0.92101975E+04</totfact>
</mgrwt>
</event>
<event>
 4    1  0.4834411E-002  0.5332717E+02  0.7818608E-02  0.1428180E+00
         -2   -1    0    0  501    0 -0.00000000000E+00  0.00000000000E+00  0.51289819862E+00  0.51290453755E+00  0.25500000000E-02 0.  1.
          2   -1    0    0    0  501  0.00000000000E+00 -0.00000000000E+00 -0.13861275852E+04  0.13861275852E+04  0.25500000000E-02 0.  1.
          2    1    1    2    0  502  0.68512065493E+01  0.24900471923E+02 -0.52037675345E+03  0.52101721475E+03  0.25500000000E-02 0.  1.
         -2    1    1    2  502    0 -0.68512065493E+01 -0.24900471923E+02 -0.86523793351E+03  0.86562327494E+03  0.25500000000E-02 0.  1.
<mgrwt>
<rscale>  0 0.53327169E+02</rscale>
<asrwt>0</asrwt>
<pdfrwt beam="2">  1        2 0.21324740E+00 0.53327169E+02</pdfrwt>
<pdfrwt beam="1">  1       -2 0.78909013E-04 0.53327169E+02</pdfrwt>
<totfact> 0.95703051E+05</totfact>
</mgrwt>
</event>
<event>
 4    1  0.4834411E-002  0.4632904E+02  0.7818608E-02  0.1466211E+00
         -2   -1    0    0  501    0 -0.00000000000E+00  0.00000000000E+00  0.46262796007E+00  0.46263498780E+00  0.25500000000E-02 0. -1.
          2   -1    0    0    0  501  0.00000000000E+00 -0.00000000000E+00 -0.11598755043E+04  0.11598755043E+04  0.25500000000E-02 0. -1.
          2    1    1    2    0  502  0.87079911905E+01 -0.21257720979E+02 -0.65432002197E+03  0.65472315597E+03  0.25500000000E-02 0.  1.
         -2    1    1    2  502    0 -0.87079911905E+01  0.21257720979E+02 -0.50509285440E+03  0.50561498334E+03  0.25500000000E-02 0.  1.
<mgrwt>
<rscale>  0 0.46329037E+02</rscale>
<asrwt>0</asrwt>
<pdfrwt beam="2">  1        2 0.17844006E+00 0.46329037E+02</pdfrwt>
<pdfrwt beam="1">  1       -2 0.71175001E-04 0.46329037E+02</pdfrwt>
<totfact> 0.13940808E+06</totfact>
</mgrwt>
</event>
<event>
 4    1  0.4834411E-002  0.4522816E+02  0.7818608E-02  0.1472922E+00
         -2   -1    0    0  501    0 -0.00000000000E+00  0.00000000000E+00  0.33743428666E+00  0.33744392174E+00  0.25500000000E-02 0.  1.
          2   -1    0    0    0  501  0.00000000000E+00 -0.00000000000E+00 -0.15155227109E+04  0.15155227109E+04  0.25500000000E-02 0.  1.
          2    1    1    2    0  502 -0.15405846542E+02  0.14556181086E+02 -0.49331830242E+03  0.49377339947E+03  0.25500000000E-02 0. -1.
         -2    1    1    2  502    0  0.15405846542E+02 -0.14556181086E+02 -0.10218669742E+04  0.10220867553E+04  0.25500000000E-02 0. -1.
<mgrwt>
<rscale>  0 0.45228161E+02</rscale>
<asrwt>0</asrwt>
<pdfrwt beam="2">  1        2 0.23315189E+00 0.45228161E+02</pdfrwt>
<pdfrwt beam="1">  1       -2 0.51914922E-04 0.45228161E+02</pdfrwt>
<totfact> 0.13980962E+06</totfact>
</mgrwt>
</event>
<event>
 4    1  0.4834411E-002  0.5581070E+02  0.7818608E-02  0.1416303E+00
          2   -1    0    0    0  501  0.00000000000E+00  0.00000000000E+00  0.99262981600E+03  0.99262981600E+03  0.25500000000E-02 0. -1.
         -2   -1    0    0  501    0 -0.00000000000E+00 -0.00000000000E+00 -0.78448819547E+00  0.78449233989E+00  0.25500000000E-02 0. -1.
          2    1    1    2    0  502 -0.14027147941E+02 -0.22391140053E+02  0.33613676509E+03  0.33717361831E+03  0.25500000000E-02 0. -1.
         -2    1    1    2  502    0  0.14027147941E+02  0.22391140053E+02  0.65570856271E+03  0.65624069003E+03  0.25500000000E-02 0. -1.
<mgrwt>
<rscale>  0 0.55810696E+02</rscale>
<asrwt>0</asrwt>
<pdfrwt beam="1">  1        2 0.15271280E+00 0.55810696E+02</pdfrwt>
<pdfrwt beam="2">  1       -2 0.12069040E-03 0.55810696E+02</pdfrwt>
<totfact> 0.88092617E+05</totfact>
</mgrwt>
</event>
<event>
 4    1  0.4834411E-002  0.6161275E+02  0.7818608E-02  0.1391186E+00
          2   -1    0    0    0  501  0.00000000000E+00  0.00000000000E+00  0.16647181028E+04  0.16647181028E+04  0.25500000000E-02 0. -1.
         -2   -1    0    0  501    0 -0.00000000000E+00 -0.00000000000E+00 -0.57008336583E+00  0.57008906892E+00  0.25500000000E-02 0. -1.
          2    1    1    2    0  502  0.11661764177E+02 -0.16335866715E+02  0.20041177154E+03  0.20141433778E+03  0.25500000000E-02 0.  1.
         -2    1    1    2  502    0 -0.11661764177E+02  0.16335866715E+02  0.14637362479E+04  0.14638738541E+04  0.25500000000E-02 0.  1.
<mgrwt>
<rscale>  0 0.61612754E+02</rscale>
<asrwt>0</asrwt>
<pdfrwt beam="1">  1        2 0.25611303E+00 0.61612754E+02</pdfrwt>
<pdfrwt beam="2">  1       -2 0.87704698E-04 0.61612754E+02</pdfrwt>
<totfact> 0.61988157E+05</totfact>
</mgrwt>
</event>
<event>
 4    1  0.4834411E-002  0.5677873E+02  0.7818608E-02  0.1411870E+00
         -2   -1    0    0  501    0 -0.00000000000E+00  0.00000000000E+00  0.46400710660E+01  0.46400717667E+01  0.25500000000E-02 0.  1.
          2   -1    0    0    0  501  0.00000000000E+00 -0.00000000000E+00 -0.17369473972E+03  0.17369473974E+03  0.25500000000E-02 0.  1.
          2    1    1    2    0  502 -0.22534359853E+02 -0.16835628660E+02 -0.96577908057E+02  0.10059089470E+03  0.25500000000E-02 0. -1.
         -2    1    1    2  502    0  0.22534359853E+02  0.16835628660E+02 -0.72476760598E+02  0.77743916802E+02  0.25500000000E-02 0. -1.
<mgrwt>
<rscale>  0 0.56778728E+02</rscale>
<asrwt>0</asrwt>
<pdfrwt beam="2">  1        2 0.26722263E-01 0.56778728E+02</pdfrwt>
<pdfrwt beam="1">  1       -2 0.71385727E-03 0.56778728E+02</pdfrwt>
<totfact> 0.50973019E+05</totfact>
</mgrwt>
</event>
<event>
 4    1  0.4834411E-002  0.5965722E+02  0.7818608E-02  0.1399276E+00
          2   -1    0    0    0  501  0.00000000000E+00  0.00000000000E+00  0.13523665350E+04  0.13523665350E+04  0.25500000000E-02 0. -1.
         -2   -1    0    0  501    0 -0.00000000000E+00 -0.00000000000E+00 -0.65791540379E+00  0.65792034552E+00  0.25500000000E-02 0. -1.
          2    1    1    2    0  502  0.25625799147E+02 -0.68256376593E+01  0.98556282232E+03  0.98591954421E+03  0.25500000000E-02 0.  1.
         -2    1    1    2  502    0 -0.25625799147E+02  0.68256376593E+01  0.36614579730E+03  0.36710491116E+03  0.25500000000E-02 0.  1.
<mgrwt>
<rscale>  0 0.59657225E+02</rscale>
<asrwt>0</asrwt>
<pdfrwt beam="1">  1        2 0.20805584E+00 0.59657225E+02</pdfrwt>
<pdfrwt beam="2">  1       -2 0.10121840E-03 0.59657225E+02</pdfrwt>
<totfact> 0.72696768E+05</totfact>
</mgrwt>
</event>
<event>
 4    1  0.4834411E-002  0.4842313E+02  0.7818608E-02  0.1454037E+00
         -2   -1    0    0  501    0 -0.00000000000E+00  0.00000000000E+00  0.24511369847E+00  0.24512696236E+00  0.25500000000E-02 0.  1.
          2   -1    0    0    0  501  0.00000000000E+00 -0.00000000000E+00 -0.23914779361E+04  0.23914779361E+04  0.25500000000E-02 0.  1.
          2    1    1    2    0  502  0.18993675902E+02 -0.13374721972E+02 -0.15326322276E+04  0.15328082685E+04  0.25500000000E-02 0. -1.
         -2    1    1    2  502    0 -0.18993675902E+02  0.13374721972E+02 -0.85860059478E+03  0.85891479453E+03  0.25500000000E-02 0. -1.
<mgrwt>
<rscale>  0 0.48423129E+02</rscale>
<asrwt>0</asrwt>
<pdfrwt beam="2">  1        2 0.36790100E+00 0.48423129E+02</pdfrwt>
<pdfrwt beam="1">  1       -2 0.37712735E-04 0.48423129E+02</pdfrwt>
<totfact> 0.81277243E+05</totfact>
</mgrwt>
</event>
<event>
 4    1  0.4834411E-002  0.7415186E+02  0.7818608E-02  0.1346518E+00
          2   -1    0    0    0  501  0.00000000000E+00  0.00000000000E+00  0.80869664702E+01  0.80869668723E+01  0.25500000000E-02 0. -1.
         -2   -1    0    0  501    0 -0.00000000000E+00 -0.00000000000E+00 -0.16998024879E+03  0.16998024881E+03  0.25500000000E-02 0. -1.
          2    1    1    2    0  502  0.28499217753E+02  0.14356114298E+02 -0.35616953171E+02  0.47821237855E+02  0.25500000000E-02 0. -1.
         -2    1    1    2  502    0 -0.28499217753E+02 -0.14356114298E+02 -0.12627632915E+03  0.13024597783E+03  0.25500000000E-02 0. -1.
<mgrwt>
<rscale>  0 0.74151861E+02</rscale>
<asrwt>0</asrwt>
<pdfrwt beam="1">  1        2 0.12441488E-02 0.74151861E+02</pdfrwt>
<pdfrwt beam="2">  1       -2 0.26150805E-01 0.74151861E+02</pdfrwt>
<totfact> 0.11249158E+05</totfact>
</mgrwt>
</event>
<event>
 4    1  0.4834411E-002  0.8017379E+02  0.7818608E-02  0.1328559E+00
         -2   -1    0    0  501    0 -0.00000000000E+00  0.00000000000E+00  0.11028834255E+01  0.11028863735E+01  0.25500000000E-02 0.  1.
          2   -1    0    0    0  501  0.00000000000E+00 -0.00000000000E+00 -0.14570506407E+04  0.14570506407E+04  0.25500000000E-02 0.  1.
          2    1    1    2    0  502 -0.22314913682E+02 -0.12100213187E+01 -0.12270203141E+03  0.12472051973E+03  0.25500000000E-02 0.  1.
         -2    1    1    2  502    0  0.22314913682E+02  0.12100213187E+01 -0.13332457259E+04  0.13334330074E+04  0.25500000000E-02 0.  1.
<mgrwt>
<rscale>  0 0.80173790E+02</rscale>
<asrwt>0</asrwt>
<pdfrwt beam="2">  1        2 0.22416010E+00 0.80173790E+02</pdfrwt>
<pdfrwt beam="1">  1       -2 0.16967577E-03 0.80173790E+02</pdfrwt>
<totfact> 0.33387948E+05</totfact>
</mgrwt>
</event>
<event>
 4    1  0.4834411E-002  0.6439592E+02  0.7818608E-02  0.1380258E+00
          2   -1    0    0    0  501  0.00000000000E+00  0.00000000000E+00  0.58667384821E+03  0.58667384821E+03  0.25500000000E-02 0.  1.
         -2   -1    0    0  501    0 -0.00000000000E+00 -0.00000000000E+00 -0.17670944111E+01  0.17670962510E+01  0.25500000000E-02 0.  1.
          2    1    1    2    0  502  0.25277074675E+02 -0.16203049807E+02  0.18618697639E+03  0.18859231031E+03  0.25500000000E-02 0.  1.
         -2    1    1    2  502    0 -0.25277074675E+02  0.16203049807E+02  0.39871977741E+03  0.39984863415E+03  0.25500000000E-02 0.  1.
<mgrwt>
<rscale>  0 0.64395920E+02</rscale>
<asrwt>0</asrwt>
<pdfrwt beam="1">  1        2 0.90257443E-01 0.64395920E+02</pdfrwt>
<pdfrwt beam="2">  1       -2 0.27186104E-03 0.64395920E+02</pdfrwt>
<totfact> 0.55797586E+05</totfact>
</mgrwt>
</event>
<event>
 4    1  0.4834411E-002  0.5024006E+02  0.7818608E-02  0.1444051E+00
         -2   -1    0    0  501    0 -0.00000000000E+00  0.00000000000E+00  0.66295041663E+00  0.66295532082E+00  0.25500000000E-02 0. -1.
          2   -1    0    0    0  501  0.00000000000E+00 -0.00000000000E+00 -0.95182619187E+03  0.95182619188E+03  0.25500000000E-02 0. -1.
          2    1    1    2    0  502 -0.22759883965E+02 -0.85125445312E+01 -0.59629423680E+03  0.59678915253E+03  0.25500000000E-02 0. -1.
         -2    1    1    2  502    0  0.22759883965E+02  0.85125445312E+01 -0.35486900466E+03  0.35569999466E+03  0.25500000000E-02 0. -1.
<mgrwt>
<rscale>  0 0.50240060E+02</rscale>
<asrwt>0</asrwt>
<pdfrwt beam="2">  1        2 0.14643371E+00 0.50240060E+02</pdfrwt>
<pdfrwt beam="1">  1       -2 0.10199351E-03 0.50240060E+02</pdfrwt>
<totfact> 0.11408347E+06</totfact>
</mgrwt>
</event>
<event>
 4    1  0.4834411E-002  0.4971485E+02  0.7818608E-02  0.1446886E+00
          2   -1    0    0    0  501  0.00000000000E+00  0.00000000000E+00  0.29152321102E+02  0.29152321213E+02  0.25500000000E-02 0. -1.
         -2   -1    0    0  501    0 -0.00000000000E+00 -0.00000000000E+00 -0.21195281448E+02  0.21195281602E+02  0.25500000000E-02 0. -1.
          2    1    1    2    0  502  0.22962774297E+02  0.21720436234E+01  0.13363880722E+02  0.26657083324E+02  0.25500000000E-02 0.  1.
         -2    1    1    2  502    0 -0.22962774297E+02 -0.21720436234E+01 -0.54068410689E+01  0.23690519491E+02  0.25500000000E-02 0.  1.
<mgrwt>
<rscale>  0 0.49714853E+02</rscale>
<asrwt>0</asrwt>
<pdfrwt beam="1">  1        2 0.44849725E-02 0.49714853E+02</pdfrwt>
<pdfrwt beam="2">  1       -2 0.32608126E-02 0.49714853E+02</pdfrwt>
<totfact> 0.47432901E+05</totfact>
</mgrwt>
</event>
<event>
 4    1  0.4834411E-002  0.5014251E+02  0.7818608E-02  0.1444574E+00
          2   -1    0    0    0  501  0.00000000000E+00  0.00000000000E+00  0.80353154947E+03  0.80353154948E+03  0.25500000000E-02 0. -1.
         -2   -1    0    0  501    0 -0.00000000000E+00 -0.00000000000E+00 -0.78225462181E+00  0.78225877806E+00  0.25500000000E-02 0. -1.
          2    1    1    2    0  502  0.47238759756E+01 -0.21508885073E+02  0.20914158860E+03  0.21029776801E+03  0.25500000000E-02 0.  1.
         -2    1    1    2  502    0 -0.47238759756E+01  0.21508885073E+02  0.59360770625E+03  0.59401604025E+03  0.25500000000E-02 0.  1.
<mgrwt>
<rscale>  0 0.50142515E+02</rscale>
<asrwt>0</asrwt>
<pdfrwt beam="1">  1        2 0.12362096E+00 0.50142515E+02</pdfrwt>
<pdfrwt beam="2">  1       -2 0.12034648E-03 0.50142515E+02</pdfrwt>
<totfact> 0.11226145E+06</totfact>
</mgrwt>
</event>
<event>
 4    1  0.4834411E-002  0.4143057E+02  0.7818608E-02  0.1497940E+00
         -2   -1    0    0  501    0 -0.00000000000E+00  0.00000000000E+00  0.88134891387E+00  0.88135260281E+00  0.25500000000E-02 0.  1.
          2   -1    0    0    0  501  0.00000000000E+00 -0.00000000000E+00 -0.48689251042E+03  0.48689251043E+03  0.25500000000E-02 0.  1.
          2    1    1    2    0  502 -0.20404068488E+02  0.28828307871E+01 -0.26794259463E+03  0.26873382881E+03  0.25500000000E-02 0. -1.
         -2    1    1    2  502    0  0.20404068488E+02 -0.28828307871E+01 -0.21806856688E+03  0.21904003422E+03  0.25500000000E-02 0. -1.
<mgrwt>
<rscale>  0 0.41430573E+02</rscale>
<asrwt>0</asrwt>
<pdfrwt beam="2">  1        2 0.74906325E-01 0.41430573E+02</pdfrwt>
<pdfrwt beam="1">  1       -2 0.13559281E-03 0.41430573E+02</pdfrwt>
<totfact> 0.15778302E+06</totfact>
</mgrwt>
</event>
<event>
 4    1  0.4834411E-002  0.5828336E+02  0.7818608E-02  0.1405180E+00
          2   -1    0    0    0  501  0.00000000000E+00  0.00000000000E+00  0.65614739129E+02  0.65614739178E+02  0.25500000000E-02 0. -1.
         -2   -1    0    0  501    0 -0.00000000000E+00 -0.00000000000E+00 -0.12942786845E+02  0.12942787096E+02  0.25500000000E-02 0. -1.
          2    1    1    2    0  502 -0.10170067326E+02  0.27131555917E+02  0.30530814672E+02  0.42091355964E+02  0.25500000000E-02 0.  1.
         -2    1    1    2  502    0  0.10170067326E+02 -0.27131555917E+02  0.22141137612E+02  0.36466170311E+02  0.25500000000E-02 0.  1.
<mgrwt>
<rscale>  0 0.58283363E+02</rscale>
<asrwt>0</asrwt>
<pdfrwt beam="1">  1        2 0.10094575E-01 0.58283363E+02</pdfrwt>
<pdfrwt beam="2">  1       -2 0.19911980E-02 0.58283363E+02</pdfrwt>
<totfact> 0.36464725E+05</totfact>
</mgrwt>
</event>
<event>
 4    1  0.4834411E-002  0.6243851E+02  0.7818608E-02  0.1387874E+00
          2   -1    0    0    0  501  0.00000000000E+00  0.00000000000E+00  0.13558485503E+03  0.13558485505E+03  0.25500000000E-02 0.  1.
         -2   -1    0    0  501    0 -0.00000000000E+00 -0.00000000000E+00 -0.71884266972E+01  0.71884271495E+01  0.25500000000E-02 0.  1.
          2    1    1    2    0  502 -0.15088541111E+02 -0.24212661135E+02  0.93187389101E+02  0.97456690515E+02  0.25500000000E-02 0.  1.
         -2    1    1    2  502    0  0.15088541111E+02  0.24212661135E+02  0.35209039229E+02  0.45316591686E+02  0.25500000000E-02 0.  1.
<mgrwt>
<rscale>  0 0.62438508E+02</rscale>
<asrwt>0</asrwt>
<pdfrwt beam="1">  1        2 0.20859208E-01 0.62438508E+02</pdfrwt>
<pdfrwt beam="2">  1       -2 0.11059118E-02 0.62438508E+02</pdfrwt>
<totfact> 0.36935735E+05</totfact>
</mgrwt>
</event>
<event>
 4    1  0.4834411E-002  0.5789000E+02  0.7818608E-02  0.1406906E+00
         -2   -1    0    0  501    0 -0.00000000000E+00  0.00000000000E+00  0.72164294532E+01  0.72164299038E+01  0.25500000000E-02 0. -1.
          2   -1    0    0    0  501  0.00000000000E+00 -0.00000000000E+00 -0.11609799354E+03  0.11609799357E+03  0.25500000000E-02 0. -1.
          2    1    1    2    0  502 -0.28547466818E+02 -0.28206488001E+01 -0.62663020774E+02  0.68917110361E+02  0.25500000000E-02 0.  1.
         -2    1    1    2  502    0  0.28547466818E+02  0.28206488001E+01 -0.46218543316E+02  0.54397313115E+02  0.25500000000E-02 0.  1.
<mgrwt>
<rscale>  0 0.57889999E+02</rscale>
<asrwt>0</asrwt>
<pdfrwt beam="2">  1        2 0.17861228E-01 0.57889999E+02</pdfrwt>
<pdfrwt beam="1">  1       -2 0.11102200E-02 0.57889999E+02</pdfrwt>
<totfact> 0.42890366E+05</totfact>
</mgrwt>
</event>
<event>
 4    1  0.4834411E-002  0.1156424E+03  0.7818608E-02  0.1250464E+00
         -2   -1    0    0  501    0 -0.00000000000E+00  0.00000000000E+00  0.18965264358E+02  0.18965264529E+02  0.25500000000E-02 0.  1.
          2   -1    0    0    0  501  0.00000000000E+00 -0.00000000000E+00 -0.17628505006E+03  0.17628505007E+03  0.25500000000E-02 0.  1.
          2    1    1    2    0  502 -0.32078603013E+02 -0.35959426932E+02 -0.13261402761E+03  0.14109782947E+03  0.25500000000E-02 0.  1.
         -2    1    1    2  502    0  0.32078603013E+02  0.35959426932E+02 -0.24705758087E+02  0.54152485130E+02  0.25500000000E-02 0.  1.
<mgrwt>
<rscale>  0 0.11564242E+03</rscale>
<asrwt>0</asrwt>
<pdfrwt beam="2">  1        2 0.27120776E-01 0.11564242E+03</pdfrwt>
<pdfrwt beam="1">  1       -2 0.29177331E-02 0.11564242E+03</pdfrwt>
<totfact> 0.77006857E+04</totfact>
</mgrwt>
</event>
<event>
 4    1  0.4834411E-002  0.4601190E+02  0.7818608E-02  0.1468122E+00
         -2   -1    0    0  501    0 -0.00000000000E+00  0.00000000000E+00  0.51380964174E+01  0.51380970501E+01  0.25500000000E-02 0.  1.
          2   -1    0    0    0  501  0.00000000000E+00 -0.00000000000E+00 -0.10300970824E+03  0.10300970827E+03  0.25500000000E-02 0.  1.
          2    1    1    2    0  502 -0.15415431805E+02  0.14275828220E+02 -0.70964627740E+02  0.74009548072E+02  0.25500000000E-02 0.  1.
         -2    1    1    2  502    0  0.15415431805E+02 -0.14275828220E+02 -0.26906984086E+02  0.34138257252E+02  0.25500000000E-02 0.  1.
<mgrwt>
<rscale>  0 0.46011905E+02</rscale>
<asrwt>0</asrwt>
<pdfrwt beam="2">  1        2 0.15847646E-01 0.46011905E+02</pdfrwt>
<pdfrwt beam="1">  1       -2 0.79047650E-03 0.46011905E+02</pdfrwt>
<totfact> 0.74382669E+05</totfact>
</mgrwt>
</event>
<event>
 4    1  0.4834411E-002  0.1369253E+03  0.7818608E-02  0.1217527E+00
          2   -1    0    0    0  501  0.00000000000E+00  0.00000000000E+00  0.39208800712E+04  0.39208800712E+04  0.25500000000E-02 0. -1.
         -2   -1    0    0  501    0 -0.00000000000E+00 -0.00000000000E+00 -0.11954285768E+01  0.11954312965E+01  0.25500000000E-02 0. -1.
          2    1    1    2    0  502  0.39290755773E+02  0.55737360383E+02  0.17862674392E+04  0.17875686787E+04  0.25500000000E-02 0.  1.
         -2    1    1    2  502    0 -0.39290755773E+02 -0.55737360383E+02  0.21334172034E+04  0.21345068237E+04  0.25500000000E-02 0.  1.
<mgrwt>
<rscale>  0 0.13692534E+03</rscale>
<asrwt>0</asrwt>
<pdfrwt beam="1">  1        2 0.60322090E+00 0.13692534E+03</pdfrwt>
<pdfrwt beam="2">  1       -2 0.18390968E-03 0.13692534E+03</pdfrwt>
<totfact> 0.12496095E+04</totfact>
</mgrwt>
</event>
<event>
 4    1  0.4834411E-002  0.4016676E+02  0.7818608E-02  0.1506988E+00
         -2   -1    0    0  501    0 -0.00000000000E+00  0.00000000000E+00  0.27917237530E+00  0.27918402109E+00  0.25500000000E-02 0.  1.
          2   -1    0    0    0  501  0.00000000000E+00 -0.00000000000E+00 -0.14447478003E+04  0.14447478003E+04  0.25500000000E-02 0.  1.
          2    1    1    2    0  502  0.19082431290E+02 -0.62538596889E+01 -0.71131407414E+03  0.71159747191E+03  0.25500000000E-02 0. -1.
         -2    1    1    2  502    0 -0.19082431290E+02  0.62538596889E+01 -0.73315455375E+03  0.73342951238E+03  0.25500000000E-02 0. -1.
<mgrwt>
<rscale>  0 0.40166757E+02</rscale>
<asrwt>0</asrwt>
<pdfrwt beam="2">  1        2 0.22226291E+00 0.40166757E+02</pdfrwt>
<pdfrwt beam="1">  1       -2 0.42951649E-04 0.40166757E+02</pdfrwt>
<totfact> 0.18971039E+06</totfact>
</mgrwt>
</event>
<event>
 4    1  0.4834411E-002  0.6873647E+02  0.7818608E-02  0.1364443E+00
         -2   -1    0    0  501    0 -0.00000000000E+00  0.00000000000E+00  0.15113941409E+02  0.15113941624E+02  0.25500000000E-02 0. -1.
          2   -1    0    0    0  501  0.00000000000E+00 -0.00000000000E+00 -0.78151388883E+02  0.78151388925E+02  0.25500000000E-02 0. -1.
          2    1    1    2    0  502 -0.31458137086E+02  0.21173677527E+00 -0.12741305216E+02  0.33941126771E+02  0.25500000000E-02 0.  1.
         -2    1    1    2  502    0  0.31458137086E+02 -0.21173677527E+00 -0.50296142258E+02  0.59324203778E+02  0.25500000000E-02 0.  1.
<mgrwt>
<rscale>  0 0.68736468E+02</rscale>
<asrwt>0</asrwt>
<pdfrwt beam="2">  1        2 0.12023290E-01 0.68736468E+02</pdfrwt>
<pdfrwt beam="1">  1       -2 0.23252218E-02 0.68736468E+02</pdfrwt>
<totfact> 0.24606699E+05</totfact>
</mgrwt>
</event>
<event>
 4    1  0.4834411E-002  0.4711342E+02  0.7818608E-02  0.1461563E+00
         -2   -1    0    0  501    0 -0.00000000000E+00  0.00000000000E+00  0.16642716949E+00  0.16644670392E+00  0.25500000000E-02 0.  1.
          2   -1    0    0    0  501  0.00000000000E+00 -0.00000000000E+00 -0.33341068429E+04  0.33341068429E+04  0.25500000000E-02 0.  1.
          2    1    1    2    0  502  0.23515909214E+02 -0.13592975687E+01 -0.16860719142E+04  0.16862364442E+04  0.25500000000E-02 0.  1.
         -2    1    1    2  502    0 -0.23515909214E+02  0.13592975687E+01 -0.16478685015E+04  0.16480368455E+04  0.25500000000E-02 0.  1.
<mgrwt>
<rscale>  0 0.47113418E+02</rscale>
<asrwt>0</asrwt>
<pdfrwt beam="2">  1        2 0.51288603E+00 0.47113418E+02</pdfrwt>
<pdfrwt beam="1">  1       -2 0.25608353E-04 0.47113418E+02</pdfrwt>
<totfact> 0.41957273E+05</totfact>
</mgrwt>
</event>
<event>
 4    1  0.4834411E-002  0.5005277E+02  0.7818608E-02  0.1445057E+00
          2   -1    0    0    0  501  0.00000000000E+00  0.00000000000E+00  0.91570090079E+01  0.91570093629E+01  0.25500000000E-02 0. -1.
         -2   -1    0    0  501    0 -0.00000000000E+00 -0.00000000000E+00 -0.68397878373E+02  0.68397878420E+02  0.25500000000E-02 0. -1.
          2    1    1    2    0  502 -0.17970776583E+02 -0.10151370995E+02 -0.51550711698E+02  0.55529046697E+02  0.25500000000E-02 0.  1.
         -2    1    1    2  502    0  0.17970776583E+02  0.10151370995E+02 -0.76901576670E+01  0.22025841086E+02  0.25500000000E-02 0.  1.
<mgrwt>
<rscale>  0 0.50052772E+02</rscale>
<asrwt>0</asrwt>
<pdfrwt beam="1">  1        2 0.14087707E-02 0.50052772E+02</pdfrwt>
<pdfrwt beam="2">  1       -2 0.10522750E-01 0.50052772E+02</pdfrwt>
<totfact> 0.38351339E+05</totfact>
</mgrwt>
</event>
<event>
 4    1  0.4834411E-002  0.1711005E+03  0.7818608E-02  0.1176705E+00
          2   -1    0    0    0  501  0.00000000000E+00  0.00000000000E+00  0.95960863713E+03  0.95960863713E+03  0.25500000000E-02 0. -1.
         -2   -1    0    0  501    0 -0.00000000000E+00 -0.00000000000E+00 -0.76269056408E+01  0.76269060671E+01  0.25500000000E-02 0. -1.
          2    1    1    2    0  502  0.51795930301E+02  0.56035924722E+02  0.69463961394E+03  0.69881831438E+03  0.25500000000E-02 0. -1.
         -2    1    1    2  502    0 -0.51795930301E+02 -0.56035924722E+02  0.25734211755E+03  0.26841722882E+03  0.25500000000E-02 0. -1.
<mgrwt>
<rscale>  0 0.17110049E+03</rscale>
<asrwt>0</asrwt>
<pdfrwt beam="1">  1        2 0.14763206E+00 0.17110049E+03</pdfrwt>
<pdfrwt beam="2">  1       -2 0.11733704E-02 0.17110049E+03</pdfrwt>
<totfact> 0.45152901E+04</totfact>
</mgrwt>
</event>
<event>
 4    1  0.4834411E-002  0.5469928E+02  0.7818608E-02  0.1421526E+00
         -2   -1    0    0  501    0 -0.00000000000E+00  0.00000000000E+00  0.30672709404E+01  0.30672720004E+01  0.25500000000E-02 0.  1.
          2   -1    0    0    0  501  0.00000000000E+00 -0.00000000000E+00 -0.24386590101E+03  0.24386590102E+03  0.25500000000E-02 0.  1.
          2    1    1    2    0  502  0.25923303613E+02  0.86327836824E+01 -0.11494402525E+03  0.11814682209E+03  0.25500000000E-02 0. -1.
         -2    1    1    2  502    0 -0.25923303613E+02 -0.86327836824E+01 -0.12585460482E+03  0.12878635093E+03  0.25500000000E-02 0. -1.
<mgrwt>
<rscale>  0 0.54699284E+02</rscale>
<asrwt>0</asrwt>
<pdfrwt beam="2">  1        2 0.37517816E-01 0.54699284E+02</pdfrwt>
<pdfrwt beam="1">  1       -2 0.47188811E-03 0.54699284E+02</pdfrwt>
<totfact> 0.62828224E+05</totfact>
</mgrwt>
</event>
<event>
 4    1  0.4834411E-002  0.5360129E+02  0.7818608E-02  0.1426832E+00
          2   -1    0    0    0  501  0.00000000000E+00  0.00000000000E+00  0.15692747906E+03  0.15692747909E+03  0.25500000000E-02 0.  1.
         -2   -1    0    0  501    0 -0.00000000000E+00 -0.00000000000E+00 -0.45771119631E+01  0.45771126734E+01  0.25500000000E-02 0.  1.
          2    1    1    2    0  502 -0.23150560879E+02 -0.15750638111E+01  0.35767936781E+02  0.42635367983E+02  0.25500000000E-02 0.  1.
         -2    1    1    2  502    0  0.23150560879E+02  0.15750638111E+01  0.11658243032E+03  0.11886922378E+03  0.25500000000E-02 0.  1.
<mgrwt>
<rscale>  0 0.53601295E+02</rscale>
<asrwt>0</asrwt>
<pdfrwt beam="1">  1        2 0.24142687E-01 0.53601295E+02</pdfrwt>
<pdfrwt beam="2">  1       -2 0.70417120E-03 0.53601295E+02</pdfrwt>
<totfact> 0.57133109E+05</totfact>
</mgrwt>
</event>
<event>
 4    1  0.4834411E-002  0.5688105E+02  0.7818608E-02  0.1411407E+00
         -2   -1    0    0  501    0 -0.00000000000E+00  0.00000000000E+00  0.46714750184E+00  0.46715446158E+00  0.25500000000E-02 0. -1.
          2   -1    0    0    0  501  0.00000000000E+00 -0.00000000000E+00 -0.17314820011E+04  0.17314820011E+04  0.25500000000E-02 0. -1.
          2    1    1    2    0  502  0.21000908395E+02  0.12562496381E+02 -0.42425559850E+03  0.42496078329E+03  0.25500000000E-02 0. -1.
         -2    1    1    2  502    0 -0.21000908395E+02 -0.12562496381E+02 -0.13067592551E+04  0.13069883723E+04  0.25500000000E-02 0. -1.
<mgrwt>
<rscale>  0 0.56881052E+02</rscale>
<asrwt>0</asrwt>
<pdfrwt beam="2">  1        2 0.26637671E+00 0.56881052E+02</pdfrwt>
<pdfrwt beam="1">  1       -2 0.71870768E-04 0.56881052E+02</pdfrwt>
<totfact> 0.74190907E+05</totfact>
</mgrwt>
</event>
<event>
 4    1  0.4834411E-002  0.1051917E+03  0.7818608E-02  0.1269742E+00
         -2   -1    0    0  501    0 -0.00000000000E+00  0.00000000000E+00  0.57701803391E+01  0.57701809026E+01  0.25500000000E-02 0. -1.
          2   -1    0    0    0  501  0.00000000000E+00 -0.00000000000E+00 -0.47941667622E+03  0.47941667623E+03  0.25500000000E-02 0. -1.
          2    1    1    2    0  502 -0.30537534291E+02  0.30933064369E+02 -0.37341015465E+03  0.37593156169E+03  0.25500000000E-02 0.  1.
         -2    1    1    2  502    0  0.30537534291E+02 -0.30933064369E+02 -0.10023634123E+03  0.10925529544E+03  0.25500000000E-02 0.  1.
<mgrwt>
<rscale>  0 0.10519165E+03</rscale>
<asrwt>0</asrwt>
<pdfrwt beam="2">  1        2 0.73756381E-01 0.10519165E+03</pdfrwt>
<pdfrwt beam="1">  1       -2 0.88772047E-03 0.10519165E+03</pdfrwt>
<totfact> 0.14512361E+05</totfact>
</mgrwt>
</event>
<event>
 4    1  0.4834411E-002  0.4593051E+02  0.7818608E-02  0.1468615E+00
          2   -1    0    0    0  501  0.00000000000E+00  0.00000000000E+00  0.17727655293E+04  0.17727655293E+04  0.25500000000E-02 0. -1.
         -2   -1    0    0  501    0 -0.00000000000E+00 -0.00000000000E+00 -0.29749741683E+00  0.29750834530E+00  0.25500000000E-02 0. -1.
          2    1    1    2    0  502  0.43361651191E+01 -0.21290849420E+02  0.59916488263E+03  0.59955872038E+03  0.25500000000E-02 0. -1.
         -2    1    1    2  502    0 -0.43361651191E+01  0.21290849420E+02  0.11733031492E+04  0.11735043173E+04  0.25500000000E-02 0. -1.
<mgrwt>
<rscale>  0 0.45930506E+02</rscale>
<asrwt>0</asrwt>
<pdfrwt beam="1">  1        2 0.27274261E+00 0.45930506E+02</pdfrwt>
<pdfrwt beam="2">  1       -2 0.45768088E-04 0.45930506E+02</pdfrwt>
<totfact> 0.12454597E+06</totfact>
</mgrwt>
</event>
<event>
 4    1  0.4834411E-002  0.1396043E+03  0.7818608E-02  0.1213862E+00
          2   -1    0    0    0  501  0.00000000000E+00  0.00000000000E+00  0.30510573596E+03  0.30510573597E+03  0.25500000000E-02 0.  1.
         -2   -1    0    0  501    0 -0.00000000000E+00 -0.00000000000E+00 -0.15969342979E+02  0.15969343183E+02  0.25500000000E-02 0.  1.
          2    1    1    2    0  502  0.56516757358E+02 -0.16423942249E+02  0.23088162454E+03  0.23826500855E+03  0.25500000000E-02 0. -1.
         -2    1    1    2  502    0 -0.56516757358E+02  0.16423942249E+02  0.58254768440E+02  0.82810070606E+02  0.25500000000E-02 0. -1.
<mgrwt>
<rscale>  0 0.13960427E+03</rscale>
<asrwt>0</asrwt>
<pdfrwt beam="1">  1        2 0.46939344E-01 0.13960427E+03</pdfrwt>
<pdfrwt beam="2">  1       -2 0.24568220E-02 0.13960427E+03</pdfrwt>
<totfact> 0.56397708E+04</totfact>
</mgrwt>
</event>
<event>
 4    1  0.4834411E-002  0.8487896E+02  0.7818608E-02  0.1315749E+00
          2   -1    0    0    0  501  0.00000000000E+00  0.00000000000E+00  0.40952552860E+03  0.40952552861E+03  0.25500000000E-02 0.  1.
         -2   -1    0    0  501    0 -0.00000000000E+00 -0.00000000000E+00 -0.43980389640E+01  0.43980397033E+01  0.25500000000E-02 0.  1.
          2    1    1    2    0  502 -0.21495255327E+02  0.69833151522E+01  0.27391657050E+02  0.35512189099E+02  0.25500000000E-02 0. -1.
         -2    1    1    2  502    0  0.21495255327E+02 -0.69833151522E+01  0.37773583259E+03  0.37841137921E+03  0.25500000000E-02 0. -1.
<mgrwt>
<rscale>  0 0.84878958E+02</rscale>
<asrwt>0</asrwt>
<pdfrwt beam="1">  1        2 0.63003948E-01 0.84878958E+02</pdfrwt>
<pdfrwt beam="2">  1       -2 0.67662122E-03 0.84878958E+02</pdfrwt>
<totfact> 0.24322542E+05</totfact>
</mgrwt>
</event>
<event>
 4    1  0.4834411E-002  0.5625740E+02  0.7818608E-02  0.1414244E+00
         -2   -1    0    0  501    0 -0.00000000000E+00  0.00000000000E+00  0.35492543575E+01  0.35492552735E+01  0.25500000000E-02 0. -1.
          2   -1    0    0    0  501  0.00000000000E+00 -0.00000000000E+00 -0.22292673247E+03  0.22292673249E+03  0.25500000000E-02 0. -1.
          2    1    1    2    0  502  0.23597542130E+02  0.14371889299E+02 -0.88451990986E+02  0.92666876026E+02  0.25500000000E-02 0. -1.
         -2    1    1    2  502    0 -0.23597542130E+02 -0.14371889299E+02 -0.13092548713E+03  0.13380911174E+03  0.25500000000E-02 0. -1.
<mgrwt>
<rscale>  0 0.56257401E+02</rscale>
<asrwt>0</asrwt>
<pdfrwt beam="2">  1        2 0.34296409E-01 0.56257401E+02</pdfrwt>
<pdfrwt beam="1">  1       -2 0.54603938E-03 0.56257401E+02</pdfrwt>
<totfact> 0.56734299E+05</totfact>
</mgrwt>
</event>
<event>
 4    1  0.4834411E-002  0.5964455E+02  0.7818608E-02  0.1399329E+00
         -2   -1    0    0  501    0 -0.00000000000E+00  0.00000000000E+00  0.98888639503E+00  0.98888968282E+00  0.25500000000E-02 0. -1.
          2   -1    0    0    0  501  0.00000000000E+00 -0.00000000000E+00 -0.89936164377E+03  0.89936164377E+03  0.25500000000E-02 0. -1.
          2    1    1    2    0  502  0.26472779626E+02  0.60762875676E+01 -0.26330074628E+03  0.26469796434E+03  0.25500000000E-02 0.  1.
         -2    1    1    2  502    0 -0.26472779626E+02 -0.60762875676E+01 -0.63507201109E+03  0.63565256911E+03  0.25500000000E-02 0.  1.
<mgrwt>
<rscale>  0 0.59644546E+02</rscale>
<asrwt>0</asrwt>
<pdfrwt beam="2">  1        2 0.13836268E+00 0.59644546E+02</pdfrwt>
<pdfrwt beam="1">  1       -2 0.15213734E-03 0.59644546E+02</pdfrwt>
<totfact> 0.73991866E+05</totfact>
</mgrwt>
</event>
<event>
 4    1  0.4834411E-002  0.6063820E+02  0.7818608E-02  0.1395173E+00
          2   -1    0    0    0  501  0.00000000000E+00  0.00000000000E+00  0.11905604591E+03  0.11905604594E+03  0.25500000000E-02 0.  1.
         -2   -1    0    0  501    0 -0.00000000000E+00 -0.00000000000E+00 -0.77211337604E+01  0.77211341815E+01  0.25500000000E-02 0.  1.
          2    1    1    2    0  502 -0.20336920105E+01 -0.24990820661E+02  0.91306061179E+02  0.94686186083E+02  0.25500000000E-02 0.  1.
         -2    1    1    2  502    0  0.20336920105E+01  0.24990820661E+02  0.20028850971E+02  0.32090994035E+02  0.25500000000E-02 0.  1.
<mgrwt>
<rscale>  0 0.60638195E+02</rscale>
<asrwt>0</asrwt>
<pdfrwt beam="1">  1        2 0.18316313E-01 0.60638195E+02</pdfrwt>
<pdfrwt beam="2">  1       -2 0.11878669E-02 0.60638195E+02</pdfrwt>
<totfact> 0.38328131E+05</totfact>
</mgrwt>
</event>
<event>
 4    1  0.4834411E-002  0.4855396E+02  0.7818608E-02  0.1453301E+00
         -2   -1    0    0  501    0 -0.00000000000E+00  0.00000000000E+00  0.23406289181E+01  0.23406303072E+01  0.25500000000E-02 0.  1.
          2   -1    0    0    0  501  0.00000000000E+00 -0.00000000000E+00 -0.25180055577E+03  0.25180055578E+03  0.25500000000E-02 0.  1.
          2    1    1    2    0  502  0.22249255995E+02  0.91477091474E+01 -0.10763898855E+03  0.11029443249E+03  0.25500000000E-02 0.  1.
         -2    1    1    2  502    0 -0.22249255995E+02 -0.91477091474E+01 -0.14182093830E+03  0.14384675360E+03  0.25500000000E-02 0.  1.
<mgrwt>
<rscale>  0 0.48553963E+02</rscale>
<asrwt>0</asrwt>
<pdfrwt beam="2">  1        2 0.38738526E-01 0.48553963E+02</pdfrwt>
<pdfrwt beam="1">  1       -2 0.36009706E-03 0.48553963E+02</pdfrwt>
<totfact> 0.85627012E+05</totfact>
</mgrwt>
</event>
<event>
 4    1  0.4834411E-002  0.5971890E+02  0.7818608E-02  0.1399015E+00
          2   -1    0    0    0  501  0.00000000000E+00  0.00000000000E+00  0.49394690006E+01  0.49394696589E+01  0.25500000000E-02 0. -1.
         -2   -1    0    0  501    0 -0.00000000000E+00 -0.00000000000E+00 -0.18050253701E+03  0.18050253702E+03  0.25500000000E-02 0. -1.
          2    1    1    2    0  502 -0.20121108839E+02 -0.82873724045E+01 -0.24291001580E+02  0.32612763246E+02  0.25500000000E-02 0. -1.
         -2    1    1    2  502    0  0.20121108839E+02  0.82873724045E+01 -0.15127206643E+03  0.15282924344E+03  0.25500000000E-02 0. -1.
<mgrwt>
<rscale>  0 0.59718900E+02</rscale>
<asrwt>0</asrwt>
<pdfrwt beam="1">  1        2 0.75991850E-03 0.59718900E+02</pdfrwt>
<pdfrwt beam="2">  1       -2 0.27769616E-01 0.59718900E+02</pdfrwt>
<totfact> 0.18922487E+05</totfact>
</mgrwt>
</event>
<event>
 4    1  0.4834411E-002  0.1010826E+03  0.7818608E-02  0.1278036E+00
         -2   -1    0    0  501    0 -0.00000000000E+00  0.00000000000E+00  0.19867563016E+01  0.19867579381E+01  0.25500000000E-02 0. -1.
          2   -1    0    0    0  501  0.00000000000E+00 -0.00000000000E+00 -0.12857236542E+04  0.12857236542E+04  0.25500000000E-02 0. -1.
          2    1    1    2    0  502 -0.17038362216E+02  0.46488039543E+02 -0.51259416192E+03  0.51497982334E+03  0.25500000000E-02 0. -1.
         -2    1    1    2  502    0  0.17038362216E+02 -0.46488039543E+02 -0.77114273598E+03  0.77273058880E+03  0.25500000000E-02 0. -1.
<mgrwt>
<rscale>  0 0.10108255E+03</rscale>
<asrwt>0</asrwt>
<pdfrwt beam="2">  1        2 0.19780297E+00 0.10108255E+03</pdfrwt>
<pdfrwt beam="1">  1       -2 0.30565597E-03 0.10108255E+03</pdfrwt>
<totfact> 0.18739912E+05</totfact>
</mgrwt>
</event>
<event>
 4    1  0.4834411E-002  0.3643298E+03  0.7818608E-02  0.1056882E+00
         -2   -1    0    0  501    0 -0.00000000000E+00  0.00000000000E+00  0.65110183291E+02  0.65110183341E+02  0.25500000000E-02 0.  1.
          2   -1    0    0    0  501  0.00000000000E+00 -0.00000000000E+00 -0.50965983975E+03  0.50965983976E+03  0.25500000000E-02 0.  1.
          2    1    1    2    0  502  0.16428267713E+03  0.34053429958E+02 -0.33422520416E+03  0.37397181873E+03  0.25500000000E-02 0.  1.
         -2    1    1    2  502    0 -0.16428267713E+03 -0.34053429958E+02 -0.11032445230E+03  0.20079820437E+03  0.25500000000E-02 0.  1.
<mgrwt>
<rscale>  0 0.36432977E+03</rscale>
<asrwt>0</asrwt>
<pdfrwt beam="2">  1        2 0.78409204E-01 0.36432977E+03</pdfrwt>
<pdfrwt beam="1">  1       -2 0.10016952E-01 0.36432977E+03</pdfrwt>
<totfact> 0.40497619E+03</totfact>
</mgrwt>
</event>
<event>
 4    1  0.4834411E-002  0.4151227E+02  0.7818608E-02  0.1497369E+00
          2   -1    0    0    0  501  0.00000000000E+00  0.00000000000E+00  0.11008520714E+04  0.11008520714E+04  0.25500000000E-02 0. -1.
         -2   -1    0    0  501    0 -0.00000000000E+00 -0.00000000000E+00 -0.39134463839E+00  0.39135294619E+00  0.25500000000E-02 0. -1.
          2    1    1    2    0  502 -0.48404519724E+01 -0.20166652202E+02  0.57231875125E+03  0.57269440094E+03  0.25500000000E-02 0. -1.
         -2    1    1    2  502    0  0.48404519724E+01  0.20166652202E+02  0.52814197552E+03  0.52854902342E+03  0.25500000000E-02 0. -1.
<mgrwt>
<rscale>  0 0.41512270E+02</rscale>
<asrwt>0</asrwt>
<pdfrwt beam="1">  1        2 0.16936237E+00 0.41512270E+02</pdfrwt>
<pdfrwt beam="2">  1       -2 0.60207324E-04 0.41512270E+02</pdfrwt>
<totfact> 0.18253366E+06</totfact>
</mgrwt>
</event>
<event>
 4    1  0.4834411E-002  0.9930407E+02  0.7818608E-02  0.1281766E+00
         -2   -1    0    0  501    0 -0.00000000000E+00  0.00000000000E+00  0.20802435414E+01  0.20802451043E+01  0.25500000000E-02 0.  1.
          2   -1    0    0    0  501  0.00000000000E+00 -0.00000000000E+00 -0.11851130244E+04  0.11851130244E+04  0.25500000000E-02 0.  1.
          2    1    1    2    0  502  0.26237126478E+02 -0.32183857880E+02 -0.26605186747E+03  0.26927269394E+03  0.25500000000E-02 0. -1.
         -2    1    1    2  502    0 -0.26237126478E+02  0.32183857880E+02 -0.91698091336E+03  0.91792057553E+03  0.25500000000E-02 0. -1.
<mgrwt>
<rscale>  0 0.99304071E+02</rscale>
<asrwt>0</asrwt>
<pdfrwt beam="2">  1        2 0.18232454E+00 0.99304071E+02</pdfrwt>
<pdfrwt beam="1">  1       -2 0.32003854E-03 0.99304071E+02</pdfrwt>
<totfact> 0.19869177E+05</totfact>
</mgrwt>
</event>
<event>
 4    1  0.4834411E-002  0.5041459E+02  0.7818608E-02  0.1443118E+00
         -2   -1    0    0  501    0 -0.00000000000E+00  0.00000000000E+00  0.22720035233E+01  0.22720049543E+01  0.25500000000E-02 0. -1.
          2   -1    0    0    0  501  0.00000000000E+00 -0.00000000000E+00 -0.27966838590E+03  0.27966838591E+03  0.25500000000E-02 0. -1.
          2    1    1    2    0  502  0.17024240712E+02 -0.18589852837E+02 -0.13880350995E+03  0.14107381678E+03  0.25500000000E-02 0.  1.
         -2    1    1    2  502    0 -0.17024240712E+02  0.18589852837E+02 -0.13859287243E+03  0.14086657409E+03  0.25500000000E-02 0.  1.
<mgrwt>
<rscale>  0 0.50414592E+02</rscale>
<asrwt>0</asrwt>
<pdfrwt beam="2">  1        2 0.43025878E-01 0.50414592E+02</pdfrwt>
<pdfrwt beam="1">  1       -2 0.34953934E-03 0.50414592E+02</pdfrwt>
<totfact> 0.80866790E+05</totfact>
</mgrwt>
</event>
<event>
 4    1  0.4834411E-002  0.4618386E+02  0.7818608E-02  0.1467084E+00
          2   -1    0    0    0  501  0.00000000000E+00  0.00000000000E+00  0.22646480127E+04  0.22646480127E+04  0.25500000000E-02 0.  1.
         -2   -1    0    0  501    0 -0.00000000000E+00 -0.00000000000E+00 -0.23545455096E+00  0.23546835895E+00  0.25500000000E-02 0.  1.
          2    1    1    2    0  502  0.19791137636E+02 -0.11883415534E+02  0.11039230379E+04  0.11041643801E+04  0.25500000000E-02 0.  1.
         -2    1    1    2  502    0 -0.19791137636E+02  0.11883415534E+02  0.11604895202E+04  0.11607191009E+04  0.25500000000E-02 0.  1.
<mgrwt>
<rscale>  0 0.46183864E+02</rscale>
<asrwt>0</asrwt>
<pdfrwt beam="1">  1        2 0.34841467E+00 0.46183864E+02</pdfrwt>
<pdfrwt beam="2">  1       -2 0.36224082E-04 0.46183864E+02</pdfrwt>
<totfact> 0.98324676E+05</totfact>
</mgrwt>
</event>
<event>
 4    1  0.4834411E-002  0.5225922E+02  0.7818608E-02  0.1433523E+00
          2   -1    0    0    0  501  0.00000000000E+00  0.00000000000E+00  0.94960543378E+01  0.94960546801E+01  0.25500000000E-02 0.  1.
         -2   -1    0    0  501    0 -0.00000000000E+00 -0.00000000000E+00 -0.71898957459E+02  0.71898957504E+02  0.25500000000E-02 0.  1.
          2    1    1    2    0  502 -0.26092908796E+02 -0.13338136877E+01 -0.30623973760E+02  0.40254772683E+02  0.25500000000E-02 0. -1.
         -2    1    1    2  502    0  0.26092908796E+02  0.13338136877E+01 -0.31778929361E+02  0.41140239502E+02  0.25500000000E-02 0. -1.
<mgrwt>
<rscale>  0 0.52259216E+02</rscale>
<asrwt>0</asrwt>
<pdfrwt beam="1">  1        2 0.14609315E-02 0.52259216E+02</pdfrwt>
<pdfrwt beam="2">  1       -2 0.11061378E-01 0.52259216E+02</pdfrwt>
<totfact> 0.34190358E+05</totfact>
</mgrwt>
</event>
<event>
 4    1  0.4834411E-002  0.5018376E+02  0.7818608E-02  0.1444353E+00
         -2   -1    0    0  501    0 -0.00000000000E+00  0.00000000000E+00  0.61077278744E+02  0.61077278797E+02  0.25500000000E-02 0. -1.
          2   -1    0    0    0  501  0.00000000000E+00 -0.00000000000E+00 -0.10308292843E+02  0.10308293159E+02  0.25500000000E-02 0. -1.
          2    1    1    2    0  502 -0.13567341712E+02 -0.20788605505E+02  0.20184425256E+02  0.31994529366E+02  0.25500000000E-02 0. -1.
         -2    1    1    2  502    0  0.13567341712E+02  0.20788605505E+02  0.30584560646E+02  0.39391042590E+02  0.25500000000E-02 0. -1.
<mgrwt>
<rscale>  0 0.50183762E+02</rscale>
<asrwt>0</asrwt>
<pdfrwt beam="2">  1        2 0.15858912E-02 0.50183762E+02</pdfrwt>
<pdfrwt beam="1">  1       -2 0.93965046E-02 0.50183762E+02</pdfrwt>
<totfact> 0.38964712E+05</totfact>
</mgrwt>
</event>
<event>
 4    1  0.4834411E-002  0.4418495E+02  0.7818608E-02  0.1479495E+00
         -2   -1    0    0  501    0 -0.00000000000E+00  0.00000000000E+00  0.38526835104E+00  0.38527678988E+00  0.25500000000E-02 0. -1.
          2   -1    0    0    0  501  0.00000000000E+00 -0.00000000000E+00 -0.12668369479E+04  0.12668369479E+04  0.25500000000E-02 0. -1.
          2    1    1    2    0  502  0.22393731431E+01 -0.21015680902E+02 -0.81776941982E+03  0.81804247911E+03  0.25500000000E-02 0.  1.
         -2    1    1    2  502    0 -0.22393731431E+01  0.21015680902E+02 -0.44868225974E+03  0.44917974559E+03  0.25500000000E-02 0.  1.
<mgrwt>
<rscale>  0 0.44184954E+02</rscale>
<asrwt>0</asrwt>
<pdfrwt beam="2">  1        2 0.19489466E+00 0.44184954E+02</pdfrwt>
<pdfrwt beam="1">  1       -2 0.59273718E-04 0.44184954E+02</pdfrwt>
<totfact> 0.15498098E+06</totfact>
</mgrwt>
</event>
<event>
 4    1  0.4834411E-002  0.8593396E+02  0.7818608E-02  0.1313008E+00
          2   -1    0    0    0  501  0.00000000000E+00  0.00000000000E+00  0.73792269214E+03  0.73792269214E+03  0.25500000000E-02 0.  1.
         -2   -1    0    0  501    0 -0.00000000000E+00 -0.00000000000E+00 -0.25018351748E+01  0.25018364744E+01  0.25500000000E-02 0.  1.
          2    1    1    2    0  502  0.64844920038E+01 -0.27774505290E+02  0.64459635101E+03  0.64522703564E+03  0.25500000000E-02 0. -1.
         -2    1    1    2  502    0 -0.64844920038E+01  0.27774505290E+02  0.90824505952E+02  0.95197492974E+02  0.25500000000E-02 0. -1.
<mgrwt>
<rscale>  0 0.85933961E+02</rscale>
<asrwt>0</asrwt>
<pdfrwt beam="1">  1        2 0.11352667E+00 0.85933961E+02</pdfrwt>
<pdfrwt beam="2">  1       -2 0.38489749E-03 0.85933961E+02</pdfrwt>
<totfact> 0.28035706E+05</totfact>
</mgrwt>
</event>
<event>
 4    1  0.4834411E-002  0.1183476E+03  0.7818608E-02  0.1245848E+00
         -2   -1    0    0  501    0 -0.00000000000E+00  0.00000000000E+00  0.21317647342E+03  0.21317647344E+03  0.25500000000E-02 0.  1.
          2   -1    0    0    0  501  0.00000000000E+00 -0.00000000000E+00 -0.16425535995E+02  0.16425536193E+02  0.25500000000E-02 0.  1.
          2    1    1    2    0  502  0.22913074426E+02  0.54494188687E+02  0.93274803944E+02  0.11043013464E+03  0.25500000000E-02 0.  1.
         -2    1    1    2  502    0 -0.22913074426E+02 -0.54494188687E+02  0.10347613348E+03  0.11917187499E+03  0.25500000000E-02 0.  1.
<mgrwt>
<rscale>  0 0.11834759E+03</rscale>
<asrwt>0</asrwt>
<pdfrwt beam="2">  1        2 0.25270058E-02 0.11834759E+03</pdfrwt>
<pdfrwt beam="1">  1       -2 0.32796378E-01 0.11834759E+03</pdfrwt>
<totfact> 0.31029028E+04</totfact>
</mgrwt>
</event>
<event>
 4    1  0.4834411E-002  0.8116662E+02  0.7818608E-02  0.1325773E+00
         -2   -1    0    0  501    0 -0.00000000000E+00  0.00000000000E+00  0.72061641618E+01  0.72061646130E+01  0.25500000000E-02 0. -1.
          2   -1    0    0    0  501  0.00000000000E+00 -0.00000000000E+00 -0.22855501218E+03  0.22855501219E+03  0.25500000000E-02 0. -1.
          2    1    1    2    0  502  0.10680387824E+02 -0.32829226720E+02 -0.17264486664E+03  0.17606271267E+03  0.25500000000E-02 0. -1.
         -2    1    1    2  502    0 -0.10680387824E+02  0.32829226720E+02 -0.48703981380E+02  0.59698464134E+02  0.25500000000E-02 0. -1.
<mgrwt>
<rscale>  0 0.81166619E+02</rscale>
<asrwt>0</asrwt>
<pdfrwt beam="2">  1        2 0.35162304E-01 0.81166619E+02</pdfrwt>
<pdfrwt beam="1">  1       -2 0.11086409E-02 0.81166619E+02</pdfrwt>
<totfact> 0.22138312E+05</totfact>
</mgrwt>
</event>
<event>
 4    1  0.4834411E-002  0.9270514E+02  0.7818608E-02  0.1296430E+00
         -2   -1    0    0  501    0 -0.00000000000E+00  0.00000000000E+00  0.30296099640E+01  0.30296110372E+01  0.25500000000E-02 0.  1.
          2   -1    0    0    0  501  0.00000000000E+00 -0.00000000000E+00 -0.70918715872E+03  0.70918715872E+03  0.25500000000E-02 0.  1.
          2    1    1    2    0  502  0.10874278847E+02  0.20545369138E+02 -0.66116921684E+03  0.66157773197E+03  0.25500000000E-02 0.  1.
         -2    1    1    2  502    0 -0.10874278847E+02 -0.20545369138E+02 -0.44988331911E+02  0.50639037788E+02  0.25500000000E-02 0.  1.
<mgrwt>
<rscale>  0 0.92705143E+02</rscale>
<asrwt>0</asrwt>
<pdfrwt beam="2">  1        2 0.10910558E+00 0.92705143E+02</pdfrwt>
<pdfrwt beam="1">  1       -2 0.46609449E-03 0.92705143E+02</pdfrwt>
<totfact> 0.22764294E+05</totfact>
</mgrwt>
</event>
<event>
 4    1  0.4834411E-002  0.1921855E+03  0.7818608E-02  0.1156505E+00
          2   -1    0    0    0  501  0.00000000000E+00  0.00000000000E+00  0.20393757559E+03  0.20393757560E+03  0.25500000000E-02 0.  1.
         -2   -1    0    0  501    0 -0.00000000000E+00 -0.00000000000E+00 -0.45277662573E+02  0.45277662645E+02  0.25500000000E-02 0.  1.
          2    1    1    2    0  502 -0.33275294201E+02 -0.77268973476E+02  0.13954238355E+03  0.16294114361E+03  0.25500000000E-02 0.  1.
         -2    1    1    2  502    0  0.33275294201E+02  0.77268973476E+02  0.19117529458E+02  0.86274094636E+02  0.25500000000E-02 0.  1.
<mgrwt>
<rscale>  0 0.19218550E+03</rscale>
<asrwt>0</asrwt>
<pdfrwt beam="1">  1        2 0.31375011E-01 0.19218550E+03</pdfrwt>
<pdfrwt beam="2">  1       -2 0.69657944E-02 0.19218550E+03</pdfrwt>
<totfact> 0.18841718E+04</totfact>
</mgrwt>
</event>
<event>
 4    1  0.4834411E-002  0.5176003E+02  0.7818608E-02  0.1436073E+00
          2   -1    0    0    0  501  0.00000000000E+00  0.00000000000E+00  0.83600715695E+03  0.83600715696E+03  0.25500000000E-02 0. -1.
         -2   -1    0    0  501    0 -0.00000000000E+00 -0.00000000000E+00 -0.80115747025E+00  0.80116152843E+00  0.25500000000E-02 0. -1.
          2    1    1    2    0  502 -0.63443337567E-01 -0.22181371498E+02  0.20205408474E+03  0.20326797690E+03  0.25500000000E-02 0.  1.
         -2    1    1    2  502    0  0.63443337567E-01  0.22181371498E+02  0.63315191474E+03  0.63354034158E+03  0.25500000000E-02 0.  1.
<mgrwt>
<rscale>  0 0.51760026E+02</rscale>
<asrwt>0</asrwt>
<pdfrwt beam="1">  1        2 0.12861705E+00 0.51760026E+02</pdfrwt>
<pdfrwt beam="2">  1       -2 0.12325477E-03 0.51760026E+02</pdfrwt>
<totfact> 0.10443314E+06</totfact>
</mgrwt>
</event>
<event>
 4    1  0.4834411E-002  0.8472897E+02  0.7818608E-02  0.1316143E+00
         -2   -1    0    0  501    0 -0.00000000000E+00  0.00000000000E+00  0.23831219117E+01  0.23831232760E+01  0.25500000000E-02 0. -1.
          2   -1    0    0    0  501  0.00000000000E+00 -0.00000000000E+00 -0.75310838407E+03  0.75310838408E+03  0.25500000000E-02 0. -1.
          2    1    1    2    0  502 -0.10756956690E+02 -0.27113879526E+02 -0.10142297631E+03  0.10553432953E+03  0.25500000000E-02 0.  1.
         -2    1    1    2  502    0  0.10756956690E+02  0.27113879526E+02 -0.64930228586E+03  0.64995717782E+03  0.25500000000E-02 0.  1.
<mgrwt>
<rscale>  0 0.84728970E+02</rscale>
<asrwt>0</asrwt>
<pdfrwt beam="2">  1        2 0.11586264E+00 0.84728970E+02</pdfrwt>
<pdfrwt beam="1">  1       -2 0.36663485E-03 0.84728970E+02</pdfrwt>
<totfact> 0.29214540E+05</totfact>
</mgrwt>
</event>
<event>
 4    1  0.4834411E-002  0.6092328E+02  0.7818608E-02  0.1393998E+00
          2   -1    0    0    0  501  0.00000000000E+00  0.00000000000E+00  0.66896905352E+01  0.66896910212E+01  0.25500000000E-02 0.  1.
         -2   -1    0    0  501    0 -0.00000000000E+00 -0.00000000000E+00 -0.13870768125E+03  0.13870768127E+03  0.25500000000E-02 0.  1.
          2    1    1    2    0  502  0.25839382253E+02 -0.15737224896E+02 -0.74472917498E+02  0.80383763099E+02  0.25500000000E-02 0.  1.
         -2    1    1    2  502    0 -0.25839382253E+02  0.15737224896E+02 -0.57545073213E+02  0.65013609193E+02  0.25500000000E-02 0.  1.
<mgrwt>
<rscale>  0 0.60923280E+02</rscale>
<asrwt>0</asrwt>
<pdfrwt beam="1">  1        2 0.10291833E-02 0.60923280E+02</pdfrwt>
<pdfrwt beam="2">  1       -2 0.21339641E-01 0.60923280E+02</pdfrwt>
<totfact> 0.19758119E+05</totfact>
</mgrwt>
</event>
<event>
 4    1  0.4834411E-002  0.4568521E+02  0.7818608E-02  0.1470109E+00
          2   -1    0    0    0  501  0.00000000000E+00  0.00000000000E+00  0.10534940883E+04  0.10534940883E+04  0.25500000000E-02 0. -1.
         -2   -1    0    0  501    0 -0.00000000000E+00 -0.00000000000E+00 -0.49528618346E+00  0.49529274780E+00  0.25500000000E-02 0. -1.
          2    1    1    2    0  502  0.21169441098E+02  0.79805513764E+01  0.45372577466E+03  0.45428945952E+03  0.25500000000E-02 0. -1.
         -2    1    1    2  502    0 -0.21169441098E+02 -0.79805513764E+01  0.59927302745E+03  0.59969992152E+03  0.25500000000E-02 0. -1.
<mgrwt>
<rscale>  0 0.45685207E+02</rscale>
<asrwt>0</asrwt>
<pdfrwt beam="1">  1        2 0.16207518E+00 0.45685207E+02</pdfrwt>
<pdfrwt beam="2">  1       -2 0.76198773E-04 0.45685207E+02</pdfrwt>
<totfact> 0.14468861E+06</totfact>
</mgrwt>
</event>
<event>
 4    1  0.4834411E-002  0.4934028E+02  0.7818608E-02  0.1448933E+00
          2   -1    0    0    0  501  0.00000000000E+00  0.00000000000E+00  0.97019887762E+03  0.97019887762E+03  0.25500000000E-02 0. -1.
         -2   -1    0    0  501    0 -0.00000000000E+00 -0.00000000000E+00 -0.62730783837E+00  0.62731302121E+00  0.25500000000E-02 0. -1.
          2    1    1    2    0  502 -0.65903471100E+01 -0.23070951184E+02  0.37190165914E+03  0.37267485230E+03  0.25500000000E-02 0.  1.
         -2    1    1    2  502    0  0.65903471100E+01  0.23070951184E+02  0.59766991064E+03  0.59815133834E+03  0.25500000000E-02 0.  1.
<mgrwt>
<rscale>  0 0.49340283E+02</rscale>
<asrwt>0</asrwt>
<pdfrwt beam="1">  1        2 0.14926056E+00 0.49340283E+02</pdfrwt>
<pdfrwt beam="2">  1       -2 0.96509818E-04 0.49340283E+02</pdfrwt>
<totfact> 0.11944169E+06</totfact>
</mgrwt>
</event>
<event>
 4    1  0.4834411E-002  0.9153195E+02  0.7818608E-02  0.1299184E+00
          2   -1    0    0    0  501  0.00000000000E+00  0.00000000000E+00  0.75865484702E+01  0.75865488988E+01  0.25500000000E-02 0. -1.
         -2   -1    0    0  501    0 -0.00000000000E+00 -0.00000000000E+00 -0.27608396307E+03  0.27608396308E+03  0.25500000000E-02 0. -1.
          2    1    1    2    0  502 -0.10151299665E+02 -0.24891727456E+02 -0.19460006794E+02  0.33186425712E+02  0.25500000000E-02 0.  1.
         -2    1    1    2  502    0  0.10151299665E+02  0.24891727456E+02 -0.24903740780E+03  0.25048408626E+03  0.25500000000E-02 0.  1.
<mgrwt>
<rscale>  0 0.91531949E+02</rscale>
<asrwt>0</asrwt>
<pdfrwt beam="1">  1        2 0.11671615E-02 0.91531949E+02</pdfrwt>
<pdfrwt beam="2">  1       -2 0.42474448E-01 0.91531949E+02</pdfrwt>
<totfact> 0.52842684E+04</totfact>
</mgrwt>
</event>
<event>
 4    1  0.4834411E-002  0.7708658E+02  0.7818608E-02  0.1337529E+00
          2   -1    0    0    0  501  0.00000000000E+00  0.00000000000E+00  0.43486778707E+02  0.43486778782E+02  0.25500000000E-02 0.  1.
         -2   -1    0    0  501    0 -0.00000000000E+00 -0.00000000000E+00 -0.34161762888E+02  0.34161762983E+02  0.25500000000E-02 0.  1.
          2    1    1    2    0  502 -0.10164300680E+02  0.30242840597E+02  0.26445201775E+02  0.41440211379E+02  0.25500000000E-02 0.  1.
         -2    1    1    2  502    0  0.10164300680E+02 -0.30242840597E+02 -0.17120185956E+02  0.36208330386E+02  0.25500000000E-02 0.  1.
<mgrwt>
<rscale>  0 0.77086575E+02</rscale>
<asrwt>0</asrwt>
<pdfrwt beam="1">  1        2 0.66902736E-02 0.77086575E+02</pdfrwt>
<pdfrwt beam="2">  1       -2 0.52556559E-02 0.77086575E+02</pdfrwt>
<totfact> 0.15674373E+05</totfact>
</mgrwt>
</event>
<event>
 4    1  0.4834411E-002  0.4483285E+02  0.7818608E-02  0.1475388E+00
         -2   -1    0    0  501    0 -0.00000000000E+00  0.00000000000E+00  0.15981688027E+01  0.15981708370E+01  0.25500000000E-02 0.  1.
          2   -1    0    0    0  501  0.00000000000E+00 -0.00000000000E+00 -0.31441973487E+03  0.31441973488E+03  0.25500000000E-02 0.  1.
          2    1    1    2    0  502  0.17024138072E+02  0.10791402774E+02 -0.87267645159E+02  0.89565158120E+02  0.25500000000E-02 0.  1.
         -2    1    1    2  502    0 -0.17024138072E+02 -0.10791402774E+02 -0.22555392091E+03  0.22645274760E+03  0.25500000000E-02 0.  1.
<mgrwt>
<rscale>  0 0.44832851E+02</rscale>
<asrwt>0</asrwt>
<pdfrwt beam="2">  1        2 0.48372218E-01 0.44832851E+02</pdfrwt>
<pdfrwt beam="1">  1       -2 0.24587253E-03 0.44832851E+02</pdfrwt>
<totfact> 0.11259448E+06</totfact>
</mgrwt>
</event>
<event>
 4    1  0.4834411E-002  0.7326195E+02  0.7818608E-02  0.1349339E+00
          2   -1    0    0    0  501  0.00000000000E+00  0.00000000000E+00  0.11480594002E+04  0.11480594002E+04  0.25500000000E-02 0. -1.
         -2   -1    0    0  501    0 -0.00000000000E+00 -0.00000000000E+00 -0.11687781548E+01  0.11687809365E+01  0.25500000000E-02 0. -1.
          2    1    1    2    0  502 -0.23586619260E+02 -0.58519845654E+01  0.10033985169E+04  0.10036927608E+04  0.25500000000E-02 0. -1.
         -2    1    1    2  502    0  0.23586619260E+02  0.58519845654E+01  0.14349210507E+03  0.14553542028E+03  0.25500000000E-02 0. -1.
<mgrwt>
<rscale>  0 0.73261950E+02</rscale>
<asrwt>0</asrwt>
<pdfrwt beam="1">  1        2 0.17662458E+00 0.73261950E+02</pdfrwt>
<pdfrwt beam="2">  1       -2 0.17981218E-03 0.73261950E+02</pdfrwt>
<totfact> 0.44129695E+05</totfact>
</mgrwt>
</event>
<event>
 4    1  0.4834411E-002  0.1286610E+03  0.7818608E-02  0.1229456E+00
         -2   -1    0    0  501    0 -0.00000000000E+00  0.00000000000E+00  0.13523741925E+02  0.13523742165E+02  0.25500000000E-02 0. -1.
          2   -1    0    0    0  501  0.00000000000E+00 -0.00000000000E+00 -0.30601084735E+03  0.30601084736E+03  0.25500000000E-02 0. -1.
          2    1    1    2    0  502 -0.28383620220E+02 -0.19102183411E+02 -0.10944480503E+02  0.35920815244E+02  0.25500000000E-02 0. -1.
         -2    1    1    2  502    0  0.28383620220E+02  0.19102183411E+02 -0.28154262492E+03  0.28361377428E+03  0.25500000000E-02 0. -1.
<mgrwt>
<rscale>  0 0.12866098E+03</rscale>
<asrwt>0</asrwt>
<pdfrwt beam="2">  1        2 0.47078587E-01 0.12866098E+03</pdfrwt>
<pdfrwt beam="1">  1       -2 0.20805759E-02 0.12866098E+03</pdfrwt>
<totfact> 0.70912913E+04</totfact>
</mgrwt>
</event>
<event>
 4    1  0.4834411E-002  0.7297192E+02  0.7818608E-02  0.1350269E+00
          2   -1    0    0    0  501  0.00000000000E+00  0.00000000000E+00  0.42613255954E+03  0.42613255955E+03  0.25500000000E-02 0.  1.
         -2   -1    0    0  501    0 -0.00000000000E+00 -0.00000000000E+00 -0.31239694958E+01  0.31239705366E+01  0.25500000000E-02 0.  1.
          2    1    1    2    0  502  0.34339526567E+02  0.85698907520E+01  0.26364957368E+03  0.26601455566E+03  0.25500000000E-02 0. -1.
         -2    1    1    2  502    0 -0.34339526567E+02 -0.85698907520E+01  0.15935901637E+03  0.16324197443E+03  0.25500000000E-02 0. -1.
<mgrwt>
<rscale>  0 0.72971922E+02</rscale>
<asrwt>0</asrwt>
<pdfrwt beam="1">  1        2 0.65558838E-01 0.72971922E+02</pdfrwt>
<pdfrwt beam="2">  1       -2 0.48061090E-03 0.72971922E+02</pdfrwt>
<totfact> 0.36596654E+05</totfact>
</mgrwt>
</event>
<event>
 4    1  0.4834411E-002  0.4257627E+02  0.7818608E-02  0.1490066E+00
          2   -1    0    0    0  501  0.00000000000E+00  0.00000000000E+00  0.18174851342E+02  0.18174851521E+02  0.25500000000E-02 0. -1.
         -2   -1    0    0  501    0 -0.00000000000E+00 -0.00000000000E+00 -0.24934710128E+02  0.24934710258E+02  0.25500000000E-02 0. -1.
          2    1    1    2    0  502 -0.17146433082E+02  0.12578839267E+02 -0.23892646663E+01  0.21399438238E+02  0.25500000000E-02 0.  1.
         -2    1    1    2  502    0  0.17146433082E+02 -0.12578839267E+02 -0.43705941190E+01  0.21710123542E+02  0.25500000000E-02 0.  1.
<mgrwt>
<rscale>  0 0.42576268E+02</rscale>
<asrwt>0</asrwt>
<pdfrwt beam="1">  1        2 0.27961310E-02 0.42576268E+02</pdfrwt>
<pdfrwt beam="2">  1       -2 0.38361093E-02 0.42576268E+02</pdfrwt>
<totfact> 0.66282667E+05</totfact>
</mgrwt>
</event>
<event>
 4    1  0.4834411E-002  0.1010492E+03  0.7818608E-02  0.1278105E+00
         -2   -1    0    0  501    0 -0.00000000000E+00  0.00000000000E+00  0.89770925064E+01  0.89770928686E+01  0.25500000000E-02 0. -1.
          2   -1    0    0    0  501  0.00000000000E+00 -0.00000000000E+00 -0.28436116841E+03  0.28436116842E+03  0.25500000000E-02 0. -1.
          2    1    1    2    0  502  0.45673642368E+02  0.21441980984E+02 -0.14531541060E+03  0.15382590393E+03  0.25500000000E-02 0.  1.
         -2    1    1    2  502    0 -0.45673642368E+02 -0.21441980984E+02 -0.13006866530E+03  0.13951235736E+03  0.25500000000E-02 0.  1.
<mgrwt>
<rscale>  0 0.10104923E+03</rscale>
<asrwt>0</asrwt>
<pdfrwt beam="2">  1        2 0.43747865E-01 0.10104923E+03</pdfrwt>
<pdfrwt beam="1">  1       -2 0.13810914E-02 0.10104923E+03</pdfrwt>
<totfact> 0.13359450E+05</totfact>
</mgrwt>
</event>
<event>
 4    1  0.4834411E-002  0.4509405E+02  0.7818608E-02  0.1473755E+00
         -2   -1    0    0  501    0 -0.00000000000E+00  0.00000000000E+00  0.30880592355E+02  0.30880592460E+02  0.25500000000E-02 0.  1.
          2   -1    0    0    0  501  0.00000000000E+00 -0.00000000000E+00 -0.16462388482E+02  0.16462388679E+02  0.25500000000E-02 0.  1.
          2    1    1    2    0  502 -0.99301384209E+00  0.21078949696E+02 -0.11279736065E+01  0.21132452005E+02  0.25500000000E-02 0.  1.
         -2    1    1    2  502    0  0.99301384209E+00 -0.21078949696E+02  0.15546177479E+02  0.26210529134E+02  0.25500000000E-02 0.  1.
<mgrwt>
<rscale>  0 0.45094049E+02</rscale>
<asrwt>0</asrwt>
<pdfrwt beam="2">  1        2 0.25326752E-02 0.45094049E+02</pdfrwt>
<pdfrwt beam="1">  1       -2 0.47508603E-02 0.45094049E+02</pdfrwt>
<totfact> 0.56233609E+05</totfact>
</mgrwt>
</event>
<event>
 4    1  0.4834411E-002  0.1062964E+03  0.7818608E-02  0.1267586E+00
          2   -1    0    0    0  501  0.00000000000E+00  0.00000000000E+00  0.29931918269E+02  0.29931918378E+02  0.25500000000E-02 0. -1.
         -2   -1    0    0  501    0 -0.00000000000E+00 -0.00000000000E+00 -0.94371858754E+02  0.94371858789E+02  0.25500000000E-02 0. -1.
          2    1    1    2    0  502 -0.24004322115E+02  0.11502107044E+02 -0.86015563476E+02  0.90039897342E+02  0.25500000000E-02 0.  1.
         -2    1    1    2  502    0  0.24004322115E+02 -0.11502107044E+02  0.21575622991E+02  0.34263879825E+02  0.25500000000E-02 0.  1.
<mgrwt>
<rscale>  0 0.10629639E+03</rscale>
<asrwt>0</asrwt>
<pdfrwt beam="1">  1        2 0.46049106E-02 0.10629639E+03</pdfrwt>
<pdfrwt beam="2">  1       -2 0.14518747E-01 0.10629639E+03</pdfrwt>
<totfact> 0.55534836E+04</totfact>
</mgrwt>
</event>
<event>
 4    1  0.4834411E-002  0.8467059E+02  0.7818608E-02  0.1316296E+00
          2   -1    0    0    0  501  0.00000000000E+00  0.00000000000E+00  0.26712466276E+04  0.26712466276E+04  0.25500000000E-02 0. -1.
         -2   -1    0    0  501    0 -0.00000000000E+00 -0.00000000000E+00 -0.67094925530E+00  0.67095410103E+00  0.25500000000E-02 0. -1.
          2    1    1    2    0  502  0.33628512383E+02 -0.20065299378E+02  0.82764364247E+03  0.82856954567E+03  0.25500000000E-02 0.  1.
         -2    1    1    2  502    0 -0.33628512383E+02  0.20065299378E+02  0.18429320358E+04  0.18433480360E+04  0.25500000000E-02 0.  1.
<mgrwt>
<rscale>  0 0.84670595E+02</rscale>
<asrwt>0</asrwt>
<pdfrwt beam="1">  1        2 0.41097290E+00 0.84670595E+02</pdfrwt>
<pdfrwt beam="2">  1       -2 0.10322035E-03 0.84670595E+02</pdfrwt>
<totfact> 0.16063799E+05</totfact>
</mgrwt>
</event>
<event>
 4    1  0.4834411E-002  0.4004005E+02  0.7818608E-02  0.1507917E+00
         -2   -1    0    0  501    0 -0.00000000000E+00  0.00000000000E+00  0.15342787958E+00  0.15344906885E+00  0.25500000000E-02 0.  1.
          2   -1    0    0    0  501  0.00000000000E+00 -0.00000000000E+00 -0.26121313857E+04  0.26121313857E+04  0.25500000000E-02 0.  1.
          2    1    1    2    0  502 -0.17163220219E+02 -0.10272960178E+02 -0.13602461474E+04  0.13603932120E+04  0.25500000000E-02 0. -1.
         -2    1    1    2  502    0  0.17163220219E+02  0.10272960178E+02 -0.12517318104E+04  0.12518916227E+04  0.25500000000E-02 0. -1.
<mgrwt>
<rscale>  0 0.40040053E+02</rscale>
<asrwt>0</asrwt>
<pdfrwt beam="2">  1        2 0.40183076E+00 0.40040053E+02</pdfrwt>
<pdfrwt beam="1">  1       -2 0.23608011E-04 0.40040053E+02</pdfrwt>
<totfact> 0.11346278E+06</totfact>
</mgrwt>
</event>
<event>
 4    1  0.4834411E-002  0.5020036E+02  0.7818608E-02  0.1444264E+00
         -2   -1    0    0  501    0 -0.00000000000E+00  0.00000000000E+00  0.43742441770E+00  0.43743185035E+00  0.25500000000E-02 0. -1.
          2   -1    0    0    0  501  0.00000000000E+00 -0.00000000000E+00 -0.14402799920E+04  0.14402799920E+04  0.25500000000E-02 0. -1.
          2    1    1    2    0  502  0.22651317000E+02 -0.21761897055E+01 -0.10239190550E+04  0.10241718846E+04  0.25500000000E-02 0.  1.
         -2    1    1    2  502    0 -0.22651317000E+02  0.21761897055E+01 -0.41592351257E+03  0.41654553926E+03  0.25500000000E-02 0.  1.
<mgrwt>
<rscale>  0 0.50200358E+02</rscale>
<asrwt>0</asrwt>
<pdfrwt beam="2">  1        2 0.22157774E+00 0.50200358E+02</pdfrwt>
<pdfrwt beam="1">  1       -2 0.67297789E-04 0.50200358E+02</pdfrwt>
<totfact> 0.11000004E+06</totfact>
</mgrwt>
</event>
<event>
 4    1  0.4834411E-002  0.8972803E+02  0.7818608E-02  0.1303512E+00
         -2   -1    0    0  501    0 -0.00000000000E+00  0.00000000000E+00  0.41550580666E+01  0.41550588491E+01  0.25500000000E-02 0. -1.
          2   -1    0    0    0  501  0.00000000000E+00 -0.00000000000E+00 -0.48441670128E+03  0.48441670128E+03  0.25500000000E-02 0. -1.
          2    1    1    2    0  502  0.27993153712E+02 -0.90934670033E+01 -0.55764347066E+02  0.63055294838E+02  0.25500000000E-02 0. -1.
         -2    1    1    2  502    0 -0.27993153712E+02  0.90934670033E+01 -0.42449729614E+03  0.42551646530E+03  0.25500000000E-02 0. -1.
<mgrwt>
<rscale>  0 0.89728027E+02</rscale>
<asrwt>0</asrwt>
<pdfrwt beam="2">  1        2 0.74525602E-01 0.89728027E+02</pdfrwt>
<pdfrwt beam="1">  1       -2 0.63924015E-03 0.89728027E+02</pdfrwt>
<totfact> 0.22249905E+05</totfact>
</mgrwt>
</event>
<event>
 4    1  0.4834411E-002  0.4854334E+02  0.7818608E-02  0.1453360E+00
          2   -1    0    0    0  501  0.00000000000E+00  0.00000000000E+00  0.15638325290E+04  0.15638325290E+04  0.25500000000E-02 0. -1.
         -2   -1    0    0  501    0 -0.00000000000E+00 -0.00000000000E+00 -0.37670738497E+00  0.37671601558E+00  0.25500000000E-02 0. -1.
          2    1    1    2    0  502 -0.17905916047E+02 -0.11003127686E+02  0.11729724846E+04  0.11731607479E+04  0.25500000000E-02 0. -1.
         -2    1    1    2  502    0  0.17905916047E+02  0.11003127686E+02  0.39048333704E+03  0.39104849719E+03  0.25500000000E-02 0. -1.
<mgrwt>
<rscale>  0 0.48543342E+02</rscale>
<asrwt>0</asrwt>
<pdfrwt beam="1">  1        2 0.24058833E+00 0.48543342E+02</pdfrwt>
<pdfrwt beam="2">  1       -2 0.57955958E-04 0.48543342E+02</pdfrwt>
<totfact> 0.11601251E+06</totfact>
</mgrwt>
</event>
<event>
 4    1  0.4834411E-002  0.5007313E+02  0.7818608E-02  0.1444948E+00
          2   -1    0    0    0  501  0.00000000000E+00  0.00000000000E+00  0.47358096054E+03  0.47358096054E+03  0.25500000000E-02 0. -1.
         -2   -1    0    0  501    0 -0.00000000000E+00 -0.00000000000E+00 -0.13235940352E+01  0.13235964916E+01  0.25500000000E-02 0. -1.
          2    1    1    2    0  502  0.75706293130E+01  0.23596715922E+02  0.26994106826E+03  0.27107618813E+03  0.25500000000E-02 0.  1.
         -2    1    1    2  502    0 -0.75706293130E+01 -0.23596715922E+02  0.20231629824E+03  0.20382836891E+03  0.25500000000E-02 0.  1.
<mgrwt>
<rscale>  0 0.50073127E+02</rscale>
<asrwt>0</asrwt>
<pdfrwt beam="1">  1        2 0.72858622E-01 0.50073127E+02</pdfrwt>
<pdfrwt beam="2">  1       -2 0.20363001E-03 0.50073127E+02</pdfrwt>
<totfact> 0.98389574E+05</totfact>
</mgrwt>
</event>
<event>
 4    1  0.4834411E-002  0.7148859E+02  0.7818608E-02  0.1355103E+00
         -2   -1    0    0  501    0 -0.00000000000E+00  0.00000000000E+00  0.57414334118E+00  0.57414900394E+00  0.25500000000E-02 0. -1.
          2   -1    0    0    0  501  0.00000000000E+00 -0.00000000000E+00 -0.22253123485E+04  0.22253123485E+04  0.25500000000E-02 0. -1.
          2    1    1    2    0  502  0.15131968363E+02 -0.25369695879E+02 -0.48572037120E+03  0.48661779349E+03  0.25500000000E-02 0.  1.
         -2    1    1    2  502    0 -0.15131968363E+02  0.25369695879E+02 -0.17390178339E+04  0.17392687040E+04  0.25500000000E-02 0.  1.
<mgrwt>
<rscale>  0 0.71488588E+02</rscale>
<asrwt>0</asrwt>
<pdfrwt beam="2">  1        2 0.34234884E+00 0.71488588E+02</pdfrwt>
<pdfrwt beam="1">  1       -2 0.88331962E-04 0.71488588E+02</pdfrwt>
<totfact> 0.33170232E+05</totfact>
</mgrwt>
</event>
<event>
 4    1  0.4834411E-002  0.4587175E+02  0.7818608E-02  0.1468972E+00
          2   -1    0    0    0  501  0.00000000000E+00  0.00000000000E+00  0.10158557994E+01  0.10158589999E+01  0.25500000000E-02 0.  1.
         -2   -1    0    0  501    0 -0.00000000000E+00 -0.00000000000E+00 -0.51784268461E+03  0.51784268461E+03  0.25500000000E-02 0.  1.
          2    1    1    2    0  502 -0.20371825939E+02  0.74253912695E+01 -0.17383974213E+03  0.17518676799E+03  0.25500000000E-02 0. -1.
         -2    1    1    2  502    0  0.20371825939E+02 -0.74253912695E+01 -0.34298708668E+03  0.34367177562E+03  0.25500000000E-02 0. -1.
<mgrwt>
<rscale>  0 0.45871748E+02</rscale>
<asrwt>0</asrwt>
<pdfrwt beam="1">  1        2 0.15628617E-03 0.45871748E+02</pdfrwt>
<pdfrwt beam="2">  1       -2 0.79667895E-01 0.45871748E+02</pdfrwt>
<totfact> 0.19907645E+05</totfact>
</mgrwt>
</event>
<event>
 4    1  0.4834411E-002  0.6496785E+02  0.7818608E-02  0.1378092E+00
         -2   -1    0    0  501    0 -0.00000000000E+00  0.00000000000E+00  0.43446350991E+01  0.43446358475E+01  0.25500000000E-02 0.  1.
          2   -1    0    0    0  501  0.00000000000E+00 -0.00000000000E+00 -0.24287544186E+03  0.24287544188E+03  0.25500000000E-02 0.  1.
          2    1    1    2    0  502  0.32104785813E+02 -0.41781970453E+01 -0.10917558976E+03  0.11387486118E+03  0.25500000000E-02 0.  1.
         -2    1    1    2  502    0 -0.32104785813E+02  0.41781970453E+01 -0.12935521701E+03  0.13334521655E+03  0.25500000000E-02 0.  1.
<mgrwt>
<rscale>  0 0.64967846E+02</rscale>
<asrwt>0</asrwt>
<pdfrwt beam="2">  1        2 0.37365442E-01 0.64967846E+02</pdfrwt>
<pdfrwt beam="1">  1       -2 0.66840565E-03 0.64967846E+02</pdfrwt>
<totfact> 0.40458679E+05</totfact>
</mgrwt>
</event>
<event>
 4    1  0.4834411E-002  0.4621534E+02  0.7818608E-02  0.1466894E+00
         -2   -1    0    0  501    0 -0.00000000000E+00  0.00000000000E+00  0.50067884608E+01  0.50067891102E+01  0.25500000000E-02 0. -1.
          2   -1    0    0    0  501  0.00000000000E+00 -0.00000000000E+00 -0.10664808169E+03  0.10664808172E+03  0.25500000000E-02 0. -1.
          2    1    1    2    0  502  0.22371649195E+02 -0.37710757062E+00 -0.36872417712E+02  0.43130129750E+02  0.25500000000E-02 0.  1.
         -2    1    1    2  502    0 -0.22371649195E+02  0.37710757062E+00 -0.64768875515E+02  0.68524741078E+02  0.25500000000E-02 0.  1.
<mgrwt>
<rscale>  0 0.46215340E+02</rscale>
<asrwt>0</asrwt>
<pdfrwt beam="2">  1        2 0.16407396E-01 0.46215340E+02</pdfrwt>
<pdfrwt beam="1">  1       -2 0.77027528E-03 0.46215340E+02</pdfrwt>
<totfact> 0.74236938E+05</totfact>
</mgrwt>
</event>
<event>
 4    1  0.4834411E-002  0.4668245E+02  0.7818608E-02  0.1464104E+00
         -2   -1    0    0  501    0 -0.00000000000E+00  0.00000000000E+00  0.64562944173E+00  0.64563447749E+00  0.25500000000E-02 0. -1.
          2   -1    0    0    0  501  0.00000000000E+00 -0.00000000000E+00 -0.84384425907E+03  0.84384425907E+03  0.25500000000E-02 0. -1.
          2    1    1    2    0  502 -0.21419363645E+02  0.25725711715E+01 -0.58279976494E+03  0.58319891399E+03  0.25500000000E-02 0.  1.
         -2    1    1    2  502    0  0.21419363645E+02 -0.25725711715E+01 -0.26039886469E+03  0.26129097956E+03  0.25500000000E-02 0.  1.
<mgrwt>
<rscale>  0 0.46682452E+02</rscale>
<asrwt>0</asrwt>
<pdfrwt beam="2">  1        2 0.12982131E+00 0.46682452E+02</pdfrwt>
<pdfrwt beam="1">  1       -2 0.99328669E-04 0.46682452E+02</pdfrwt>
<totfact> 0.13484878E+06</totfact>
</mgrwt>
</event>
<event>
 4    1  0.4834411E-002  0.4791647E+02  0.7818608E-02  0.1456915E+00
         -2   -1    0    0  501    0 -0.00000000000E+00  0.00000000000E+00  0.45031043020E+03  0.45031043021E+03  0.25500000000E-02 0.  1.
          2   -1    0    0    0  501  0.00000000000E+00 -0.00000000000E+00 -0.12746682833E+01  0.12746708339E+01  0.25500000000E-02 0.  1.
          2    1    1    2    0  502  0.20440674977E+02  0.11614368570E+02  0.18104048750E+03  0.18256060055E+03  0.25500000000E-02 0. -1.
         -2    1    1    2  502    0 -0.20440674977E+02 -0.11614368570E+02  0.26799527442E+03  0.26902450050E+03  0.25500000000E-02 0. -1.
<mgrwt>
<rscale>  0 0.47916469E+02</rscale>
<asrwt>0</asrwt>
<pdfrwt beam="2">  1        2 0.19610283E-03 0.47916469E+02</pdfrwt>
<pdfrwt beam="1">  1       -2 0.69278591E-01 0.47916469E+02</pdfrwt>
<totfact> 0.19906607E+05</totfact>
</mgrwt>
</event>
<event>
 4    1  0.4834411E-002  0.6185579E+02  0.7818608E-02  0.1390205E+00
          2   -1    0    0    0  501  0.00000000000E+00  0.00000000000E+00  0.33418800714E+04  0.33418800714E+04  0.25500000000E-02 0. -1.
         -2   -1    0    0  501    0 -0.00000000000E+00 -0.00000000000E+00 -0.28622082871E+00  0.28623218772E+00  0.25500000000E-02 0. -1.
          2    1    1    2    0  502 -0.27345597121E+02  0.14355424667E+02  0.17591639453E+04  0.17594350361E+04  0.25500000000E-02 0. -1.
         -2    1    1    2  502    0  0.27345597121E+02 -0.14355424667E+02  0.15824299053E+04  0.15827312675E+04  0.25500000000E-02 0. -1.
<mgrwt>
<rscale>  0 0.61855789E+02</rscale>
<asrwt>0</asrwt>
<pdfrwt beam="1">  1        2 0.51412481E+00 0.61855789E+02</pdfrwt>
<pdfrwt beam="2">  1       -2 0.44035754E-04 0.61855789E+02</pdfrwt>
<totfact> 0.20678282E+05</totfact>
</mgrwt>
</event>
<event>
 4    1  0.4834411E-002  0.6653761E+02  0.7818608E-02  0.1372279E+00
          2   -1    0    0    0  501  0.00000000000E+00  0.00000000000E+00  0.12505604193E+04  0.12505604193E+04  0.25500000000E-02 0. -1.
         -2   -1    0    0  501    0 -0.00000000000E+00 -0.00000000000E+00 -0.88505219898E+00  0.88505587248E+00  0.25500000000E-02 0. -1.
          2    1    1    2    0  502 -0.34838561422E+01 -0.25664983272E+02  0.10175553501E+04  0.10178849243E+04  0.25500000000E-02 0. -1.
         -2    1    1    2  502    0  0.34838561422E+01  0.25664983272E+02  0.23212001700E+03  0.23356055086E+03  0.25500000000E-02 0. -1.
<mgrwt>
<rscale>  0 0.66537615E+02</rscale>
<asrwt>0</asrwt>
<pdfrwt beam="1">  1        2 0.19239318E+00 0.66537615E+02</pdfrwt>
<pdfrwt beam="2">  1       -2 0.13616268E-03 0.66537615E+02</pdfrwt>
<totfact> 0.55956258E+05</totfact>
</mgrwt>
</event>
<event>
 4    1  0.4834411E-002  0.6309854E+02  0.7818608E-02  0.1385270E+00
         -2   -1    0    0  501    0 -0.00000000000E+00  0.00000000000E+00  0.29438750237E+02  0.29438750348E+02  0.25500000000E-02 0. -1.
          2   -1    0    0    0  501  0.00000000000E+00 -0.00000000000E+00 -0.33811091888E+02  0.33811091984E+02  0.25500000000E-02 0. -1.
          2    1    1    2    0  502 -0.25107444282E+02 -0.15296600471E+02  0.92862088440E+01  0.30831857316E+02  0.25500000000E-02 0. -1.
         -2    1    1    2  502    0  0.25107444282E+02  0.15296600471E+02 -0.13658550494E+02  0.32417985016E+02  0.25500000000E-02 0. -1.
<mgrwt>
<rscale>  0 0.63098536E+02</rscale>
<asrwt>0</asrwt>
<pdfrwt beam="2">  1        2 0.52017065E-02 0.63098536E+02</pdfrwt>
<pdfrwt beam="1">  1       -2 0.45290385E-02 0.63098536E+02</pdfrwt>
<totfact> 0.25783085E+05</totfact>
</mgrwt>
</event>
<event>
 4    1  0.4834411E-002  0.4423068E+02  0.7818608E-02  0.1479202E+00
          2   -1    0    0    0  501  0.00000000000E+00  0.00000000000E+00  0.16728022359E+03  0.16728022361E+03  0.25500000000E-02 0.  1.
         -2   -1    0    0  501    0 -0.00000000000E+00 -0.00000000000E+00 -0.29237649673E+01  0.29237660793E+01  0.25500000000E-02 0.  1.
          2    1    1    2    0  502 -0.21634450211E+02 -0.15208335918E+01  0.98830217183E+02  0.10118188675E+03  0.25500000000E-02 0.  1.
         -2    1    1    2  502    0  0.21634450211E+02  0.15208335918E+01  0.65526241438E+02  0.69022102940E+02  0.25500000000E-02 0.  1.
<mgrwt>
<rscale>  0 0.44230675E+02</rscale>
<asrwt>0</asrwt>
<pdfrwt beam="1">  1        2 0.25735420E-01 0.44230675E+02</pdfrwt>
<pdfrwt beam="2">  1       -2 0.44981006E-03 0.44230675E+02</pdfrwt>
<totfact> 0.94286288E+05</totfact>
</mgrwt>
</event>
<event>
 4    1  0.4834411E-002  0.5396675E+02  0.7818608E-02  0.1425049E+00
         -2   -1    0    0  501    0 -0.00000000000E+00  0.00000000000E+00  0.36806023126E+01  0.36806031959E+01  0.25500000000E-02 0.  1.
          2   -1    0    0    0  501  0.00000000000E+00 -0.00000000000E+00 -0.19782153172E+03  0.19782153173E+03  0.25500000000E-02 0.  1.
          2    1    1    2    0  502  0.14465053813E+02 -0.22077223431E+02 -0.11801346691E+03  0.12092898724E+03  0.25500000000E-02 0.  1.
         -2    1    1    2  502    0 -0.14465053813E+02  0.22077223431E+02 -0.76127462497E+02  0.80573147692E+02  0.25500000000E-02 0.  1.
<mgrwt>
<rscale>  0 0.53966748E+02</rscale>
<asrwt>0</asrwt>
<pdfrwt beam="2">  1        2 0.30434074E-01 0.53966748E+02</pdfrwt>
<pdfrwt beam="1">  1       -2 0.56624673E-03 0.53966748E+02</pdfrwt>
<totfact> 0.60531824E+05</totfact>
</mgrwt>
</event>
<event>
 4    1  0.4834411E-002  0.8074004E+02  0.7818608E-02  0.1326964E+00
         -2   -1    0    0  501    0 -0.00000000000E+00  0.00000000000E+00  0.12273010507E+02  0.12273010772E+02  0.25500000000E-02 0. -1.
          2   -1    0    0    0  501  0.00000000000E+00 -0.00000000000E+00 -0.13279043518E+03  0.13279043520E+03  0.25500000000E-02 0. -1.
          2    1    1    2    0  502 -0.20025938951E+02 -0.33971473481E+02 -0.44736541130E+02  0.59636040782E+02  0.25500000000E-02 0. -1.
         -2    1    1    2  502    0  0.20025938951E+02  0.33971473481E+02 -0.75780883539E+02  0.85427405192E+02  0.25500000000E-02 0. -1.
<mgrwt>
<rscale>  0 0.80740038E+02</rscale>
<asrwt>0</asrwt>
<pdfrwt beam="2">  1        2 0.20429297E-01 0.80740038E+02</pdfrwt>
<pdfrwt beam="1">  1       -2 0.18881556E-02 0.80740038E+02</pdfrwt>
<totfact> 0.18638849E+05</totfact>
</mgrwt>
</event>
<event>
 4    1  0.4834411E-002  0.4732306E+02  0.7818608E-02  0.1460339E+00
          2   -1    0    0    0  501  0.00000000000E+00  0.00000000000E+00  0.19317768619E+01  0.19317785449E+01  0.25500000000E-02 0.  1.
         -2   -1    0    0  501    0 -0.00000000000E+00 -0.00000000000E+00 -0.28982010024E+03  0.28982010025E+03  0.25500000000E-02 0.  1.
          2    1    1    2    0  502 -0.14018596587E+02  0.18577854382E+02 -0.11763547562E+03  0.11991564891E+03  0.25500000000E-02 0. -1.
         -2    1    1    2  502    0  0.14018596587E+02 -0.18577854382E+02 -0.17025284776E+03  0.17183622988E+03  0.25500000000E-02 0. -1.
<mgrwt>
<rscale>  0 0.47323060E+02</rscale>
<asrwt>0</asrwt>
<pdfrwt beam="1">  1        2 0.29719680E-03 0.47323060E+02</pdfrwt>
<pdfrwt beam="2">  1       -2 0.44587673E-01 0.47323060E+02</pdfrwt>
<totfact> 0.27081376E+05</totfact>
</mgrwt>
</event>
<event>
 4    1  0.4834411E-002  0.6025780E+02  0.7818608E-02  0.1396753E+00
         -2   -1    0    0  501    0 -0.00000000000E+00  0.00000000000E+00  0.47247641791E+00  0.47248329916E+00  0.25500000000E-02 0. -1.
          2   -1    0    0    0  501  0.00000000000E+00 -0.00000000000E+00 -0.19212469502E+04  0.19212469502E+04  0.25500000000E-02 0. -1.
          2    1    1    2    0  502  0.24807342296E+02  0.11047500015E+02 -0.54420572504E+03  0.54488285224E+03  0.25500000000E-02 0. -1.
         -2    1    1    2  502    0 -0.24807342296E+02 -0.11047500015E+02 -0.13765687487E+04  0.13768365813E+04  0.25500000000E-02 0. -1.
<mgrwt>
<rscale>  0 0.60257796E+02</rscale>
<asrwt>0</asrwt>
<pdfrwt beam="2">  1        2 0.29557020E+00 0.60257796E+02</pdfrwt>
<pdfrwt beam="1">  1       -2 0.72690747E-04 0.60257796E+02</pdfrwt>
<totfact> 0.59593417E+05</totfact>
</mgrwt>
</event>
<event>
 4    1  0.4834411E-002  0.9050545E+02  0.7818608E-02  0.1301632E+00
          2   -1    0    0    0  501  0.00000000000E+00  0.00000000000E+00  0.15599410346E+04  0.15599410346E+04  0.25500000000E-02 0.  1.
         -2   -1    0    0  501    0 -0.00000000000E+00 -0.00000000000E+00 -0.13127465873E+01  0.13127490640E+01  0.25500000000E-02 0.  1.
          2    1    1    2    0  502  0.33707192534E+02  0.26855150788E+02  0.54126181865E+03  0.54297488919E+03  0.25500000000E-02 0. -1.
         -2    1    1    2  502    0 -0.33707192534E+02 -0.26855150788E+02  0.10173664693E+04  0.10182788945E+04  0.25500000000E-02 0. -1.
<mgrwt>
<rscale>  0 0.90505452E+02</rscale>
<asrwt>0</asrwt>
<pdfrwt beam="1">  1        2 0.23999134E+00 0.90505452E+02</pdfrwt>
<pdfrwt beam="2">  1       -2 0.20196085E-03 0.90505452E+02</pdfrwt>
<totfact> 0.23679326E+05</totfact>
</mgrwt>
</event>
<event>
 4    1  0.4834411E-002  0.4713420E+02  0.7818608E-02  0.1461442E+00
         -2   -1    0    0  501    0 -0.00000000000E+00  0.00000000000E+00  0.24558426364E+01  0.24558439603E+01  0.25500000000E-02 0. -1.
          2   -1    0    0    0  501  0.00000000000E+00 -0.00000000000E+00 -0.22615785215E+03  0.22615785217E+03  0.25500000000E-02 0. -1.
          2    1    1    2    0  502  0.13119302761E+02  0.17169727674E+02 -0.66224254500E+02  0.69660372838E+02  0.25500000000E-02 0. -1.
         -2    1    1    2  502    0 -0.13119302761E+02 -0.17169727674E+02 -0.15747775502E+03  0.15895332329E+03  0.25500000000E-02 0. -1.
<mgrwt>
<rscale>  0 0.47134202E+02</rscale>
<asrwt>0</asrwt>
<pdfrwt beam="2">  1        2 0.34793499E-01 0.47134202E+02</pdfrwt>
<pdfrwt beam="1">  1       -2 0.37782223E-03 0.47134202E+02</pdfrwt>
<totfact> 0.88866005E+05</totfact>
</mgrwt>
</event>
<event>
 4    1  0.4834411E-002  0.4563636E+02  0.7818608E-02  0.1470408E+00
         -2   -1    0    0  501    0 -0.00000000000E+00  0.00000000000E+00  0.27473552790E+00  0.27474736175E+00  0.25500000000E-02 0.  1.
          2   -1    0    0    0  501  0.00000000000E+00 -0.00000000000E+00 -0.18951252027E+04  0.18951252027E+04  0.25500000000E-02 0.  1.
          2    1    1    2    0  502 -0.18344690455E+02 -0.13449853394E+02 -0.87262942113E+03  0.87292584614E+03  0.25500000000E-02 0. -1.
         -2    1    1    2  502    0  0.18344690455E+02  0.13449853394E+02 -0.10222210460E+04  0.10224741039E+04  0.25500000000E-02 0. -1.
<mgrwt>
<rscale>  0 0.45636364E+02</rscale>
<asrwt>0</asrwt>
<pdfrwt beam="2">  1        2 0.29154726E+00 0.45636364E+02</pdfrwt>
<pdfrwt beam="1">  1       -2 0.42269432E-04 0.45636364E+02</pdfrwt>
<totfact> 0.12077315E+06</totfact>
</mgrwt>
</event>
<event>
 4    1  0.4834411E-002  0.5656170E+02  0.7818608E-02  0.1412855E+00
         -2   -1    0    0  501    0 -0.00000000000E+00  0.00000000000E+00  0.10526949522E+01  0.10526980407E+01  0.25500000000E-02 0. -1.
          2   -1    0    0    0  501  0.00000000000E+00 -0.00000000000E+00 -0.75976927152E+03  0.75976927152E+03  0.25500000000E-02 0. -1.
          2    1    1    2    0  502  0.41215500848E+01  0.27178983806E+02 -0.46870709144E+03  0.46951253648E+03  0.25500000000E-02 0. -1.
         -2    1    1    2  502    0 -0.41215500848E+01 -0.27178983806E+02 -0.29000948512E+03  0.29130943308E+03  0.25500000000E-02 0. -1.
<mgrwt>
<rscale>  0 0.56561699E+02</rscale>
<asrwt>0</asrwt>
<pdfrwt beam="2">  1        2 0.11688714E+00 0.56561699E+02</pdfrwt>
<pdfrwt beam="1">  1       -2 0.16195391E-03 0.56561699E+02</pdfrwt>
<totfact> 0.82379934E+05</totfact>
</mgrwt>
</event>
<event>
 4    1  0.4834411E-002  0.4214785E+02  0.7818608E-02  0.1492975E+00
          2   -1    0    0    0  501  0.00000000000E+00  0.00000000000E+00  0.11994323917E+04  0.11994323917E+04  0.25500000000E-02 0. -1.
         -2   -1    0    0  501    0 -0.00000000000E+00 -0.00000000000E+00 -0.37026265958E+00  0.37027144041E+00  0.25500000000E-02 0. -1.
          2    1    1    2    0  502 -0.20134545872E+02 -0.28503001227E+01  0.75696442078E+03  0.75723751788E+03  0.25500000000E-02 0.  1.
         -2    1    1    2  502    0  0.20134545872E+02  0.28503001227E+01  0.44209770830E+03  0.44256514531E+03  0.25500000000E-02 0.  1.
<mgrwt>
<rscale>  0 0.42147849E+02</rscale>
<asrwt>0</asrwt>
<pdfrwt beam="1">  1        2 0.18453136E+00 0.42147849E+02</pdfrwt>
<pdfrwt beam="2">  1       -2 0.56963142E-04 0.42147849E+02</pdfrwt>
<totfact> 0.17502177E+06</totfact>
</mgrwt>
</event>
<event>
 4    1  0.4834411E-002  0.6290960E+02  0.7818608E-02  0.1386012E+00
         -2   -1    0    0  501    0 -0.00000000000E+00  0.00000000000E+00  0.44262882906E+02  0.44262882979E+02  0.25500000000E-02 0.  1.
          2   -1    0    0    0  501  0.00000000000E+00 -0.00000000000E+00 -0.22352912676E+02  0.22352912822E+02  0.25500000000E-02 0.  1.
          2    1    1    2    0  502  0.19439570889E+02  0.11752322452E+02 -0.12084354040E+02  0.25730247151E+02  0.25500000000E-02 0. -1.
         -2    1    1    2  502    0 -0.19439570889E+02 -0.11752322452E+02  0.33994324270E+02  0.40885548650E+02  0.25500000000E-02 0. -1.
<mgrwt>
<rscale>  0 0.62909597E+02</rscale>
<asrwt>0</asrwt>
<pdfrwt beam="2">  1        2 0.34389097E-02 0.62909597E+02</pdfrwt>
<pdfrwt beam="1">  1       -2 0.68096743E-02 0.62909597E+02</pdfrwt>
<totfact> 0.24020035E+05</totfact>
</mgrwt>
</event>
<event>
 4    1  0.4834411E-002  0.8010919E+02  0.7818608E-02  0.1328742E+00
         -2   -1    0    0  501    0 -0.00000000000E+00  0.00000000000E+00  0.22341640304E+01  0.22341654856E+01  0.25500000000E-02 0.  1.
          2   -1    0    0    0  501  0.00000000000E+00 -0.00000000000E+00 -0.71810756513E+03  0.71810756513E+03  0.25500000000E-02 0.  1.
          2    1    1    2    0  502  0.19027497382E+01 -0.36158246248E+02 -0.20393146184E+03  0.20712093174E+03  0.25500000000E-02 0. -1.
         -2    1    1    2  502    0 -0.19027497382E+01  0.36158246248E+02 -0.51194193925E+03  0.51322079888E+03  0.25500000000E-02 0. -1.
<mgrwt>
<rscale>  0 0.80109191E+02</rscale>
<asrwt>0</asrwt>
<pdfrwt beam="2">  1        2 0.11047790E+00 0.80109191E+02</pdfrwt>
<pdfrwt beam="1">  1       -2 0.34371823E-03 0.80109191E+02</pdfrwt>
<totfact> 0.33478577E+05</totfact>
</mgrwt>
</event>
<event>
 4    1  0.4834411E-002  0.4489911E+02  0.7818608E-02  0.1474972E+00
          2   -1    0    0    0  501  0.00000000000E+00  0.00000000000E+00  0.10541629959E+04  0.10541629959E+04  0.25500000000E-02 0.  1.
         -2   -1    0    0  501    0 -0.00000000000E+00 -0.00000000000E+00 -0.47808448022E+00  0.47809128075E+00  0.25500000000E-02 0.  1.
          2    1    1    2    0  502  0.87352871912E+01  0.18935054810E+02  0.33152782066E+03  0.33218298786E+03  0.25500000000E-02 0.  1.
         -2    1    1    2  502    0 -0.87352871912E+01 -0.18935054810E+02  0.72215709071E+03  0.72245809928E+03  0.25500000000E-02 0.  1.
<mgrwt>
<rscale>  0 0.44899112E+02</rscale>
<asrwt>0</asrwt>
<pdfrwt beam="1">  1        2 0.16217957E+00 0.44899112E+02</pdfrwt>
<pdfrwt beam="2">  1       -2 0.73551690E-04 0.44899112E+02</pdfrwt>
<totfact> 0.15094767E+06</totfact>
</mgrwt>
</event>
<event>
 4    1  0.4834411E-002  0.5184127E+02  0.7818608E-02  0.1435656E+00
         -2   -1    0    0  501    0 -0.00000000000E+00  0.00000000000E+00  0.78281132023E+01  0.78281136177E+01  0.25500000000E-02 0. -1.
          2   -1    0    0    0  501  0.00000000000E+00 -0.00000000000E+00 -0.85829032364E+02  0.85829032402E+02  0.25500000000E-02 0. -1.
          2    1    1    2    0  502  0.14584392021E+02  0.13945196264E+02 -0.96072178380E+01  0.22348861952E+02  0.25500000000E-02 0.  1.
         -2    1    1    2  502    0 -0.14584392021E+02 -0.13945196264E+02 -0.68393701324E+02  0.71308284068E+02  0.25500000000E-02 0.  1.
<mgrwt>
<rscale>  0 0.51841273E+02</rscale>
<asrwt>0</asrwt>
<pdfrwt beam="2">  1        2 0.13204466E-01 0.51841273E+02</pdfrwt>
<pdfrwt beam="1">  1       -2 0.12043252E-02 0.51841273E+02</pdfrwt>
<totfact> 0.52551017E+05</totfact>
</mgrwt>
</event>
<event>
 4    1  0.4834411E-002  0.4462047E+02  0.7818608E-02  0.1476725E+00
          2   -1    0    0    0  501  0.00000000000E+00  0.00000000000E+00  0.17164748505E+04  0.17164748505E+04  0.25500000000E-02 0. -1.
         -2   -1    0    0  501    0 -0.00000000000E+00 -0.00000000000E+00 -0.28997629248E+00  0.28998750438E+00  0.25500000000E-02 0. -1.
          2    1    1    2    0  502  0.16066600476E+02  0.15263217821E+02  0.95727366438E+03  0.95753014051E+03  0.25500000000E-02 0. -1.
         -2    1    1    2  502    0 -0.16066600476E+02 -0.15263217821E+02  0.75891120980E+03  0.75923469747E+03  0.25500000000E-02 0. -1.
<mgrwt>
<rscale>  0 0.44620472E+02</rscale>
<asrwt>0</asrwt>
<pdfrwt beam="1">  1        2 0.26406277E+00 0.44620472E+02</pdfrwt>
<pdfrwt beam="2">  1       -2 0.44614337E-04 0.44620472E+02</pdfrwt>
<totfact> 0.13635573E+06</totfact>
</mgrwt>
</event>
<event>
 4    1  0.4834411E-002  0.5000059E+02  0.7818608E-02  0.1445338E+00
          2   -1    0    0    0  501  0.00000000000E+00  0.00000000000E+00  0.13688645384E+04  0.13688645384E+04  0.25500000000E-02 0. -1.
         -2   -1    0    0  501    0 -0.00000000000E+00 -0.00000000000E+00 -0.45659004912E+00  0.45659716979E+00  0.25500000000E-02 0. -1.
          2    1    1    2    0  502 -0.23174734142E+02  0.93338384370E+01  0.65931492690E+03  0.65978811878E+03  0.25500000000E-02 0. -1.
         -2    1    1    2  502    0  0.23174734142E+02 -0.93338384370E+01  0.70909302144E+03  0.70953301678E+03  0.25500000000E-02 0. -1.
<mgrwt>
<rscale>  0 0.50000592E+02</rscale>
<asrwt>0</asrwt>
<pdfrwt beam="1">  1        2 0.21059297E+00 0.50000592E+02</pdfrwt>
<pdfrwt beam="2">  1       -2 0.70245698E-04 0.50000592E+02</pdfrwt>
<totfact> 0.11265512E+06</totfact>
</mgrwt>
</event>
<event>
 4    1  0.4834411E-002  0.7692830E+02  0.7818608E-02  0.1338002E+00
         -2   -1    0    0  501    0 -0.00000000000E+00  0.00000000000E+00  0.43243002299E+01  0.43243009817E+01  0.25500000000E-02 0. -1.
          2   -1    0    0    0  501  0.00000000000E+00 -0.00000000000E+00 -0.34213416798E+03  0.34213416799E+03  0.25500000000E-02 0. -1.
          2    1    1    2    0  502 -0.77558128572E+01  0.37332510443E+02 -0.14610824953E+03  0.15100162104E+03  0.25500000000E-02 0.  1.
         -2    1    1    2  502    0  0.77558128572E+01 -0.37332510443E+02 -0.19170161822E+03  0.19545684793E+03  0.25500000000E-02 0.  1.
<mgrwt>
<rscale>  0 0.76928304E+02</rscale>
<asrwt>0</asrwt>
<pdfrwt beam="2">  1        2 0.52636005E-01 0.76928304E+02</pdfrwt>
<pdfrwt beam="1">  1       -2 0.66527729E-03 0.76928304E+02</pdfrwt>
<totfact> 0.29523384E+05</totfact>
</mgrwt>
</event>
<event>
 4    1  0.4834411E-002  0.5605319E+02  0.7818608E-02  0.1415183E+00
          2   -1    0    0    0  501  0.00000000000E+00  0.00000000000E+00  0.72881754711E+03  0.72881754711E+03  0.25500000000E-02 0.  1.
         -2   -1    0    0  501    0 -0.00000000000E+00 -0.00000000000E+00 -0.10777581587E+01  0.10777611754E+01  0.25500000000E-02 0.  1.
          2    1    1    2    0  502  0.55291853173E+01 -0.25323234042E+02  0.50268889016E+03  0.50335669099E+03  0.25500000000E-02 0.  1.
         -2    1    1    2  502    0 -0.55291853173E+01  0.25323234042E+02  0.22505089879E+03  0.22653861729E+03  0.25500000000E-02 0.  1.
<mgrwt>
<rscale>  0 0.56053195E+02</rscale>
<asrwt>0</asrwt>
<pdfrwt beam="1">  1        2 0.11212550E+00 0.56053195E+02</pdfrwt>
<pdfrwt beam="2">  1       -2 0.16580959E-03 0.56053195E+02</pdfrwt>
<totfact> 0.83560853E+05</totfact>
</mgrwt>
</event>
<event>
 4    1  0.4834411E-002  0.2366398E+03  0.7818608E-02  0.1122052E+00
          2   -1    0    0    0  501  0.00000000000E+00  0.00000000000E+00  0.88748776272E+03  0.88748776272E+03  0.25500000000E-02 0.  1.
         -2   -1    0    0  501    0 -0.00000000000E+00 -0.00000000000E+00 -0.15774411411E+02  0.15774411617E+02  0.25500000000E-02 0.  1.
          2    1    1    2    0  502 -0.31578680735E+01 -0.34910743748E+02  0.86721304542E+03  0.86792119360E+03  0.25500000000E-02 0. -1.
         -2    1    1    2  502    0  0.31578680735E+01  0.34910743748E+02  0.45003058931E+01  0.35340980737E+02  0.25500000000E-02 0. -1.
<mgrwt>
<rscale>  0 0.23663979E+03</rscale>
<asrwt>0</asrwt>
<pdfrwt beam="1">  1        2 0.13653663E+00 0.23663979E+03</pdfrwt>
<pdfrwt beam="2">  1       -2 0.24268317E-02 0.23663979E+03</pdfrwt>
<totfact> 0.17772840E+04</totfact>
</mgrwt>
</event>
<event>
 4    1  0.4834411E-002  0.1007919E+03  0.7818608E-02  0.1278639E+00
         -2   -1    0    0  501    0 -0.00000000000E+00  0.00000000000E+00  0.27174609821E+01  0.27174621785E+01  0.25500000000E-02 0.  1.
          2   -1    0    0    0  501  0.00000000000E+00 -0.00000000000E+00 -0.93460474306E+03  0.93460474306E+03  0.25500000000E-02 0.  1.
          2    1    1    2    0  502 -0.47312655181E+02 -0.44078565800E+01 -0.30982261420E+03  0.31344532030E+03  0.25500000000E-02 0.  1.
         -2    1    1    2  502    0  0.47312655181E+02  0.44078565800E+01 -0.62206466788E+03  0.62387688494E+03  0.25500000000E-02 0.  1.
<mgrwt>
<rscale>  0 0.10079191E+03</rscale>
<asrwt>0</asrwt>
<pdfrwt beam="2">  1        2 0.14378509E+00 0.10079191E+03</pdfrwt>
<pdfrwt beam="1">  1       -2 0.41807176E-03 0.10079191E+03</pdfrwt>
<totfact> 0.19088071E+05</totfact>
</mgrwt>
</event>
<event>
 4    1  0.4834411E-002  0.5220687E+02  0.7818608E-02  0.1433789E+00
          2   -1    0    0    0  501  0.00000000000E+00  0.00000000000E+00  0.16656696278E+04  0.16656696278E+04  0.25500000000E-02 0.  1.
         -2   -1    0    0  501    0 -0.00000000000E+00 -0.00000000000E+00 -0.40907433106E+00  0.40908227880E+00  0.25500000000E-02 0.  1.
          2    1    1    2    0  502 -0.12549140985E+02  0.21258351686E+02  0.56185655905E+03  0.56239860545E+03  0.25500000000E-02 0.  1.
         -2    1    1    2  502    0  0.12549140985E+02 -0.21258351686E+02  0.11034039945E+04  0.11036801047E+04  0.25500000000E-02 0.  1.
<mgrwt>
<rscale>  0 0.52206870E+02</rscale>
<asrwt>0</asrwt>
<pdfrwt beam="1">  1        2 0.25626209E+00 0.52206870E+02</pdfrwt>
<pdfrwt beam="2">  1       -2 0.62933841E-04 0.52206870E+02</pdfrwt>
<totfact> 0.93981719E+05</totfact>
</mgrwt>
</event>
<event>
 4    1  0.4834411E-002  0.6150084E+02  0.7818608E-02  0.1391639E+00
         -2   -1    0    0  501    0 -0.00000000000E+00  0.00000000000E+00  0.83617018834E+01  0.83617022722E+01  0.25500000000E-02 0.  1.
          2   -1    0    0    0  501  0.00000000000E+00 -0.00000000000E+00 -0.11308564582E+03  0.11308564585E+03  0.25500000000E-02 0.  1.
          2    1    1    2    0  502 -0.19552334471E+02  0.21491204708E+02 -0.72249224123E+02  0.77872434507E+02  0.25500000000E-02 0. -1.
         -2    1    1    2  502    0  0.19552334471E+02 -0.21491204708E+02 -0.32474719814E+02  0.43574913615E+02  0.25500000000E-02 0. -1.
<mgrwt>
<rscale>  0 0.61500845E+02</rscale>
<asrwt>0</asrwt>
<pdfrwt beam="2">  1        2 0.17397791E-01 0.61500845E+02</pdfrwt>
<pdfrwt beam="1">  1       -2 0.12864158E-02 0.61500845E+02</pdfrwt>
<totfact> 0.36409472E+05</totfact>
</mgrwt>
</event>
<event>
 4    1  0.4834411E-002  0.1206101E+03  0.7818608E-02  0.1242094E+00
          2   -1    0    0    0  501  0.00000000000E+00  0.00000000000E+00  0.17321357442E+02  0.17321357630E+02  0.25500000000E-02 0.  1.
         -2   -1    0    0  501    0 -0.00000000000E+00 -0.00000000000E+00 -0.20995470086E+03  0.20995470087E+03  0.25500000000E-02 0.  1.
          2    1    1    2    0  502  0.36122552143E+02 -0.20318701824E+00 -0.53216830077E+01  0.36513016512E+02  0.25500000000E-02 0.  1.
         -2    1    1    2  502    0 -0.36122552143E+02  0.20318701824E+00 -0.18731166041E+03  0.19076304199E+03  0.25500000000E-02 0.  1.
<mgrwt>
<rscale>  0 0.12061012E+03</rscale>
<asrwt>0</asrwt>
<pdfrwt beam="1">  1        2 0.26648244E-02 0.12061012E+03</pdfrwt>
<pdfrwt beam="2">  1       -2 0.32300721E-01 0.12061012E+03</pdfrwt>
<totfact> 0.29769075E+04</totfact>
</mgrwt>
</event>
<event>
 4    1  0.4834411E-002  0.4985987E+02  0.7818608E-02  0.1446099E+00
         -2   -1    0    0  501    0 -0.00000000000E+00  0.00000000000E+00  0.33020022377E+01  0.33020032224E+01  0.25500000000E-02 0.  1.
          2   -1    0    0    0  501  0.00000000000E+00 -0.00000000000E+00 -0.18821960025E+03  0.18821960027E+03  0.25500000000E-02 0.  1.
          2    1    1    2    0  502  0.11466508895E+02  0.18157431091E+02 -0.43821214263E+02  0.48800327417E+02  0.25500000000E-02 0. -1.
         -2    1    1    2  502    0 -0.11466508895E+02 -0.18157431091E+02 -0.14109638375E+03  0.14272127607E+03  0.25500000000E-02 0. -1.
<mgrwt>
<rscale>  0 0.49859869E+02</rscale>
<asrwt>0</asrwt>
<pdfrwt beam="2">  1        2 0.28956853E-01 0.49859869E+02</pdfrwt>
<pdfrwt beam="1">  1       -2 0.50800057E-03 0.49859869E+02</pdfrwt>
<totfact> 0.72667553E+05</totfact>
</mgrwt>
</event>
<event>
 4    1  0.4834411E-002  0.5499735E+02  0.7818608E-02  0.1420111E+00
          2   -1    0    0    0  501  0.00000000000E+00  0.00000000000E+00  0.10307985872E+04  0.10307985872E+04  0.25500000000E-02 0.  1.
         -2   -1    0    0  501    0 -0.00000000000E+00 -0.00000000000E+00 -0.73358162369E+00  0.73358605570E+00  0.25500000000E-02 0.  1.
          2    1    1    2    0  502 -0.15677294720E+02  0.15854325638E+02  0.21315942140E+03  0.21432236503E+03  0.25500000000E-02 0.  1.
         -2    1    1    2  502    0  0.15677294720E+02 -0.15854325638E+02  0.81690558413E+03  0.81720980819E+03  0.25500000000E-02 0.  1.
<mgrwt>
<rscale>  0 0.54997352E+02</rscale>
<asrwt>0</asrwt>
<pdfrwt beam="1">  1        2 0.15858562E+00 0.54997352E+02</pdfrwt>
<pdfrwt beam="2">  1       -2 0.11285818E-03 0.54997352E+02</pdfrwt>
<totfact> 0.91499309E+05</totfact>
</mgrwt>
</event>
<event>
 4    1  0.4834411E-002  0.8424815E+02  0.7818608E-02  0.1317410E+00
          2   -1    0    0    0  501  0.00000000000E+00  0.00000000000E+00  0.12699331025E+03  0.12699331027E+03  0.25500000000E-02 0. -1.
         -2   -1    0    0  501    0 -0.00000000000E+00 -0.00000000000E+00 -0.13972684914E+02  0.13972685147E+02  0.25500000000E-02 0. -1.
          2    1    1    2    0  502  0.69369999053E+01  0.39875765283E+02  0.76040417294E+02  0.86141416829E+02  0.25500000000E-02 0. -1.
         -2    1    1    2  502    0 -0.69369999053E+01 -0.39875765283E+02  0.36980208038E+02  0.54824578590E+02  0.25500000000E-02 0. -1.
<mgrwt>
<rscale>  0 0.84248146E+02</rscale>
<asrwt>0</asrwt>
<pdfrwt beam="1">  1        2 0.19537432E-01 0.84248146E+02</pdfrwt>
<pdfrwt beam="2">  1       -2 0.21496439E-02 0.84248146E+02</pdfrwt>
<totfact> 0.16388685E+05</totfact>
</mgrwt>
</event>
<event>
 4    1  0.4834411E-002  0.5815557E+02  0.7818608E-02  0.1405739E+00
         -2   -1    0    0  501    0 -0.00000000000E+00  0.00000000000E+00  0.66388028527E+02  0.66388028576E+02  0.25500000000E-02 0. -1.
          2   -1    0    0    0  501  0.00000000000E+00 -0.00000000000E+00 -0.12735994470E+02  0.12735994726E+02  0.25500000000E-02 0. -1.
          2    1    1    2    0  502 -0.25382574532E+02  0.38562574223E+01  0.45400087890E+02  0.52156627557E+02  0.25500000000E-02 0. -1.
         -2    1    1    2  502    0  0.25382574532E+02 -0.38562574223E+01  0.82519461663E+01  0.26967395744E+02  0.25500000000E-02 0. -1.
<mgrwt>
<rscale>  0 0.58155570E+02</rscale>
<asrwt>0</asrwt>
<pdfrwt beam="2">  1        2 0.19593838E-02 0.58155570E+02</pdfrwt>
<pdfrwt beam="1">  1       -2 0.10213543E-01 0.58155570E+02</pdfrwt>
<totfact> 0.26797545E+05</totfact>
</mgrwt>
</event>
<event>
 4    1  0.4834411E-002  0.4458764E+02  0.7818608E-02  0.1476932E+00
          2   -1    0    0    0  501  0.00000000000E+00  0.00000000000E+00  0.49759004022E+01  0.49759010556E+01  0.25500000000E-02 0. -1.
         -2   -1    0    0  501    0 -0.00000000000E+00 -0.00000000000E+00 -0.99884318398E+02  0.99884318431E+02  0.25500000000E-02 0. -1.
          2    1    1    2    0  502 -0.12696885266E+02 -0.16851888658E+02 -0.64383317050E+02  0.67752553957E+02  0.25500000000E-02 0. -1.
         -2    1    1    2  502    0  0.12696885266E+02  0.16851888658E+02 -0.30525100946E+02  0.37107665530E+02  0.25500000000E-02 0. -1.
<mgrwt>
<rscale>  0 0.44587642E+02</rscale>
<asrwt>0</asrwt>
<pdfrwt beam="1">  1        2 0.76552326E-03 0.44587642E+02</pdfrwt>
<pdfrwt beam="2">  1       -2 0.15366817E-01 0.44587642E+02</pdfrwt>
<totfact> 0.46636148E+05</totfact>
</mgrwt>
</event>
<event>
 4    1  0.4834411E-002  0.8500820E+02  0.7818608E-02  0.1315411E+00
         -2   -1    0    0  501    0 -0.00000000000E+00  0.00000000000E+00  0.18047835609E+02  0.18047835789E+02  0.25500000000E-02 0.  1.
          2   -1    0    0    0  501  0.00000000000E+00 -0.00000000000E+00 -0.10010056611E+03  0.10010056614E+03  0.25500000000E-02 0.  1.
          2    1    1    2    0  502 -0.30598624546E+02  0.27668530387E+02 -0.26799926088E+02  0.49194099674E+02  0.25500000000E-02 0.  1.
         -2    1    1    2  502    0  0.30598624546E+02 -0.27668530387E+02 -0.55252804412E+02  0.68954302257E+02  0.25500000000E-02 0.  1.
<mgrwt>
<rscale>  0 0.85008201E+02</rscale>
<asrwt>0</asrwt>
<pdfrwt beam="2">  1        2 0.15400087E-01 0.85008201E+02</pdfrwt>
<pdfrwt beam="1">  1       -2 0.27765902E-02 0.85008201E+02</pdfrwt>
<totfact> 0.14864678E+05</totfact>
</mgrwt>
</event>
<event>
 4    1  0.4834411E-002  0.5437256E+02  0.7818608E-02  0.1423090E+00
          2   -1    0    0    0  501  0.00000000000E+00  0.00000000000E+00  0.26938251740E+02  0.26938251860E+02  0.25500000000E-02 0.  1.
         -2   -1    0    0  501    0 -0.00000000000E+00 -0.00000000000E+00 -0.27436591013E+02  0.27436591131E+02  0.25500000000E-02 0.  1.
          2    1    1    2    0  502 -0.24053260376E+02 -0.10355846735E+02 -0.75495378352E+01  0.27254328543E+02  0.25500000000E-02 0. -1.
         -2    1    1    2  502    0  0.24053260376E+02  0.10355846735E+02  0.70511985620E+01  0.27120514449E+02  0.25500000000E-02 0. -1.
<mgrwt>
<rscale>  0 0.54372559E+02</rscale>
<asrwt>0</asrwt>
<pdfrwt beam="1">  1        2 0.41443464E-02 0.54372559E+02</pdfrwt>
<pdfrwt beam="2">  1       -2 0.42210140E-02 0.54372559E+02</pdfrwt>
<totfact> 0.36949811E+05</totfact>
</mgrwt>
</event>
<event>
 4    1  0.4834411E-002  0.4930329E+02  0.7818608E-02  0.1449136E+00
         -2   -1    0    0  501    0 -0.00000000000E+00  0.00000000000E+00  0.93387571791E+03  0.93387571791E+03  0.25500000000E-02 0. -1.
          2   -1    0    0    0  501  0.00000000000E+00 -0.00000000000E+00 -0.65073038692E+00  0.65073538321E+00  0.25500000000E-02 0. -1.
          2    1    1    2    0  502  0.20738179886E+02  0.94297922248E+01  0.64513925279E+03  0.64554136087E+03  0.25500000000E-02 0. -1.
         -2    1    1    2  502    0 -0.20738179886E+02 -0.94297922248E+01  0.28808573473E+03  0.28898509243E+03  0.25500000000E-02 0. -1.
<mgrwt>
<rscale>  0 0.49303292E+02</rscale>
<asrwt>0</asrwt>
<pdfrwt beam="2">  1        2 0.10011197E-03 0.49303292E+02</pdfrwt>
<pdfrwt beam="1">  1       -2 0.14367432E+00 0.49303292E+02</pdfrwt>
<totfact> 0.95539559E+04</totfact>
</mgrwt>
</event>
<event>
 4    1  0.4834411E-002  0.4392469E+02  0.7818608E-02  0.1481168E+00
          2   -1    0    0    0  501  0.00000000000E+00  0.00000000000E+00  0.94150558824E+01  0.94150562277E+01  0.25500000000E-02 0. -1.
         -2   -1    0    0  501    0 -0.00000000000E+00 -0.00000000000E+00 -0.51231200758E+02  0.51231200821E+02  0.25500000000E-02 0. -1.
          2    1    1    2    0  502  0.17517725534E+02  0.12466881694E+02 -0.27090526313E+02  0.34585986605E+02  0.25500000000E-02 0. -1.
         -2    1    1    2  502    0 -0.17517725534E+02 -0.12466881694E+02 -0.14725618563E+02  0.26060270444E+02  0.25500000000E-02 0. -1.
<mgrwt>
<rscale>  0 0.43924691E+02</rscale>
<asrwt>0</asrwt>
<pdfrwt beam="1">  1        2 0.14484702E-02 0.43924691E+02</pdfrwt>
<pdfrwt beam="2">  1       -2 0.78817231E-02 0.43924691E+02</pdfrwt>
<totfact> 0.55359521E+05</totfact>
</mgrwt>
</event>
<event>
 4    1  0.4834411E-002  0.4720862E+02  0.7818608E-02  0.1461007E+00
          2   -1    0    0    0  501  0.00000000000E+00  0.00000000000E+00  0.25650016197E+03  0.25650016199E+03  0.25500000000E-02 0.  1.
         -2   -1    0    0  501    0 -0.00000000000E+00 -0.00000000000E+00 -0.21721751888E+01  0.21721766855E+01  0.25500000000E-02 0.  1.
          2    1    1    2    0  502 -0.16800541730E+01 -0.21539044631E+02  0.17926402527E+03  0.18056119126E+03  0.25500000000E-02 0.  1.
         -2    1    1    2  502    0  0.16800541730E+01  0.21539044631E+02  0.75063961510E+02  0.78111147410E+02  0.25500000000E-02 0.  1.
<mgrwt>
<rscale>  0 0.47208621E+02</rscale>
<asrwt>0</asrwt>
<pdfrwt beam="1">  1        2 0.39461565E-01 0.47208621E+02</pdfrwt>
<pdfrwt beam="2">  1       -2 0.33418090E-03 0.47208621E+02</pdfrwt>
<totfact> 0.92395274E+05</totfact>
</mgrwt>
</event>
<event>
 4    1  0.4834411E-002  0.7729817E+02  0.7818608E-02  0.1336898E+00
          2   -1    0    0    0  501  0.00000000000E+00  0.00000000000E+00  0.21109686834E+04  0.21109686834E+04  0.25500000000E-02 0. -1.
         -2   -1    0    0  501    0 -0.00000000000E+00 -0.00000000000E+00 -0.70761214746E+00  0.70761674212E+00  0.25500000000E-02 0. -1.
          2    1    1    2    0  502  0.37424296482E+02 -0.94091788914E+01  0.11139848946E+04  0.11146530654E+04  0.25500000000E-02 0. -1.
         -2    1    1    2  502    0 -0.37424296482E+02  0.94091788914E+01  0.99627617662E+03  0.99702323479E+03  0.25500000000E-02 0. -1.
<mgrwt>
<rscale>  0 0.77298174E+02</rscale>
<asrwt>0</asrwt>
<pdfrwt beam="1">  1        2 0.32475867E+00 0.77298174E+02</pdfrwt>
<pdfrwt beam="2">  1       -2 0.10886568E-03 0.77298174E+02</pdfrwt>
<totfact> 0.28759481E+05</totfact>
</mgrwt>
</event>
<event>
 4    1  0.4834411E-002  0.4810766E+02  0.7818608E-02  0.1455824E+00
          2   -1    0    0    0  501  0.00000000000E+00  0.00000000000E+00  0.11775659503E+02  0.11775659779E+02  0.25500000000E-02 0.  1.
         -2   -1    0    0  501    0 -0.00000000000E+00 -0.00000000000E+00 -0.49134117216E+02  0.49134117282E+02  0.25500000000E-02 0.  1.
          2    1    1    2    0  502 -0.13918241970E+01 -0.23887765665E+02 -0.21786788308E+02  0.32360881853E+02  0.25500000000E-02 0.  1.
         -2    1    1    2  502    0  0.13918241970E+01  0.23887765665E+02 -0.15571669405E+02  0.28548895209E+02  0.25500000000E-02 0.  1.
<mgrwt>
<rscale>  0 0.48107656E+02</rscale>
<asrwt>0</asrwt>
<pdfrwt beam="1">  1        2 0.18116400E-02 0.48107656E+02</pdfrwt>
<pdfrwt beam="2">  1       -2 0.75590949E-02 0.48107656E+02</pdfrwt>
<totfact> 0.44852942E+05</totfact>
</mgrwt>
</event>
<event>
 4    1  0.4834411E-002  0.6332733E+02  0.7818608E-02  0.1384376E+00
          2   -1    0    0    0  501  0.00000000000E+00  0.00000000000E+00  0.69020356265E+02  0.69020356312E+02  0.25500000000E-02 0. -1.
         -2   -1    0    0  501    0 -0.00000000000E+00 -0.00000000000E+00 -0.14525970548E+02  0.14525970772E+02  0.25500000000E-02 0. -1.
          2    1    1    2    0  502 -0.31505666424E+02 -0.20134763627E+01  0.24035473057E+02  0.39678269562E+02  0.25500000000E-02 0. -1.
         -2    1    1    2  502    0  0.31505666424E+02  0.20134763627E+01  0.30458912660E+02  0.43868057522E+02  0.25500000000E-02 0. -1.
<mgrwt>
<rscale>  0 0.63327330E+02</rscale>
<asrwt>0</asrwt>
<pdfrwt beam="1">  1        2 0.10618516E-01 0.63327330E+02</pdfrwt>
<pdfrwt beam="2">  1       -2 0.22347647E-02 0.63327330E+02</pdfrwt>
<totfact> 0.29667237E+05</totfact>
</mgrwt>
</event>
<event>
 4    1  0.4834411E-002  0.5103613E+02  0.7818608E-02  0.1439832E+00
          2   -1    0    0    0  501  0.00000000000E+00  0.00000000000E+00  0.11655302779E+04  0.11655302779E+04  0.25500000000E-02 0.  1.
         -2   -1    0    0  501    0 -0.00000000000E+00 -0.00000000000E+00 -0.55868846440E+00  0.55869428380E+00  0.25500000000E-02 0.  1.
          2    1    1    2    0  502 -0.44497166130E+01 -0.24356417261E+02  0.72358524131E+03  0.72400872680E+03  0.25500000000E-02 0.  1.
         -2    1    1    2  502    0  0.44497166130E+01  0.24356417261E+02  0.44138634817E+03  0.44208024542E+03  0.25500000000E-02 0.  1.
<mgrwt>
<rscale>  0 0.51036133E+02</rscale>
<asrwt>0</asrwt>
<pdfrwt beam="1">  1        2 0.17931238E+00 0.51036133E+02</pdfrwt>
<pdfrwt beam="2">  1       -2 0.85952505E-04 0.51036133E+02</pdfrwt>
<totfact> 0.10980870E+06</totfact>
</mgrwt>
</event>
<event>
 4    1  0.4834411E-002  0.1039971E+03  0.7818608E-02  0.1272108E+00
         -2   -1    0    0  501    0 -0.00000000000E+00  0.00000000000E+00  0.15132625946E+02  0.15132626161E+02  0.25500000000E-02 0. -1.
          2   -1    0    0    0  501  0.00000000000E+00 -0.00000000000E+00 -0.17867665391E+03  0.17867665393E+03  0.25500000000E-02 0. -1.
          2    1    1    2    0  502 -0.10803922602E+02  0.38583294344E+02 -0.14353723325E+03  0.14902460428E+03  0.25500000000E-02 0. -1.
         -2    1    1    2  502    0  0.10803922602E+02 -0.38583294344E+02 -0.20006794718E+02  0.44784675810E+02  0.25500000000E-02 0. -1.
<mgrwt>
<rscale>  0 0.10399706E+03</rscale>
<asrwt>0</asrwt>
<pdfrwt beam="2">  1        2 0.27488714E-01 0.10399706E+03</pdfrwt>
<pdfrwt beam="1">  1       -2 0.23280964E-02 0.10399706E+03</pdfrwt>
<totfact> 0.10381267E+05</totfact>
</mgrwt>
</event>
<event>
 4    1  0.4834411E-002  0.1088093E+03  0.7818608E-02  0.1262791E+00
          2   -1    0    0    0  501  0.00000000000E+00  0.00000000000E+00  0.11143243470E+04  0.11143243470E+04  0.25500000000E-02 0. -1.
         -2   -1    0    0  501    0 -0.00000000000E+00 -0.00000000000E+00 -0.26561992817E+01  0.26562005057E+01  0.25500000000E-02 0. -1.
          2    1    1    2    0  502  0.26425091469E+02 -0.43573873773E+02  0.36027720509E+03  0.36386348051E+03  0.25500000000E-02 0.  1.
         -2    1    1    2  502    0 -0.26425091469E+02  0.43573873773E+02  0.75139094265E+03  0.75311706702E+03  0.25500000000E-02 0.  1.
<mgrwt>
<rscale>  0 0.10880934E+03</rscale>
<asrwt>0</asrwt>
<pdfrwt beam="1">  1        2 0.17143481E+00 0.10880934E+03</pdfrwt>
<pdfrwt beam="2">  1       -2 0.40864542E-03 0.10880934E+03</pdfrwt>
<totfact> 0.15637662E+05</totfact>
</mgrwt>
</event>
<event>
 4    1  0.4834411E-002  0.7757848E+02  0.7818608E-02  0.1336067E+00
          2   -1    0    0    0  501  0.00000000000E+00  0.00000000000E+00  0.49990433256E+03  0.49990433257E+03  0.25500000000E-02 0.  1.
         -2   -1    0    0  501    0 -0.00000000000E+00 -0.00000000000E+00 -0.30097857125E+01  0.30097867928E+01  0.25500000000E-02 0.  1.
          2    1    1    2    0  502 -0.35855283071E+02 -0.12156185176E+02  0.30315984706E+03  0.30551475748E+03  0.25500000000E-02 0. -1.
         -2    1    1    2  502    0  0.35855283071E+02  0.12156185176E+02  0.19373469980E+03  0.19739936189E+03  0.25500000000E-02 0. -1.
<mgrwt>
<rscale>  0 0.77578481E+02</rscale>
<asrwt>0</asrwt>
<pdfrwt beam="1">  1        2 0.76908295E-01 0.77578481E+02</pdfrwt>
<pdfrwt beam="2">  1       -2 0.46304442E-03 0.77578481E+02</pdfrwt>
<totfact> 0.32921109E+05</totfact>
</mgrwt>
</event>
<event>
 4    1  0.4834411E-002  0.5551157E+02  0.7818608E-02  0.1417695E+00
         -2   -1    0    0  501    0 -0.00000000000E+00  0.00000000000E+00  0.61402000353E+00  0.61402529853E+00  0.25500000000E-02 0. -1.
          2   -1    0    0    0  501  0.00000000000E+00 -0.00000000000E+00 -0.12546499899E+04  0.12546499899E+04  0.25500000000E-02 0. -1.
          2    1    1    2    0  502  0.16529435741E+02  0.18702522301E+02 -0.35250282351E+03  0.35338540883E+03  0.25500000000E-02 0. -1.
         -2    1    1    2  502    0 -0.16529435741E+02 -0.18702522301E+02 -0.90153314638E+03  0.90187860637E+03  0.25500000000E-02 0. -1.
<mgrwt>
<rscale>  0 0.55511567E+02</rscale>
<asrwt>0</asrwt>
<pdfrwt beam="2">  1        2 0.19302102E+00 0.55511567E+02</pdfrwt>
<pdfrwt beam="1">  1       -2 0.94466028E-04 0.55511567E+02</pdfrwt>
<totfact> 0.88359033E+05</totfact>
</mgrwt>
</event>
<event>
 4    1  0.4834411E-002  0.1137382E+03  0.7818608E-02  0.1253800E+00
         -2   -1    0    0  501    0 -0.00000000000E+00  0.00000000000E+00  0.38170398229E+03  0.38170398230E+03  0.25500000000E-02 0. -1.
          2   -1    0    0    0  501  0.00000000000E+00 -0.00000000000E+00 -0.84727830309E+01  0.84727834146E+01  0.25500000000E-02 0. -1.
          2    1    1    2    0  502 -0.33925679234E+02 -0.38646165331E+02  0.10331653593E+03  0.11540703796E+03  0.25500000000E-02 0. -1.
         -2    1    1    2  502    0  0.33925679234E+02  0.38646165331E+02  0.26991466332E+03  0.27476972775E+03  0.25500000000E-02 0. -1.
<mgrwt>
<rscale>  0 0.11373821E+03</rscale>
<asrwt>0</asrwt>
<pdfrwt beam="2">  1        2 0.13035048E-02 0.11373821E+03</pdfrwt>
<pdfrwt beam="1">  1       -2 0.58723705E-01 0.11373821E+03</pdfrwt>
<totfact> 0.24797089E+04</totfact>
</mgrwt>
</event>
<event>
 4    1  0.4834411E-002  0.5278762E+02  0.7818608E-02  0.1430861E+00
         -2   -1    0    0  501    0 -0.00000000000E+00  0.00000000000E+00  0.57396219244E+01  0.57396224909E+01  0.25500000000E-02 0.  1.
          2   -1    0    0    0  501  0.00000000000E+00 -0.00000000000E+00 -0.12137267974E+03  0.12137267977E+03  0.25500000000E-02 0.  1.
          2    1    1    2    0  502 -0.20891881789E+01  0.22660875164E+02 -0.25621963700E+02  0.34269009335E+02  0.25500000000E-02 0.  1.
         -2    1    1    2  502    0  0.20891881789E+01 -0.22660875164E+02 -0.90011094116E+02  0.92843292923E+02  0.25500000000E-02 0.  1.
<mgrwt>
<rscale>  0 0.52787625E+02</rscale>
<asrwt>0</asrwt>
<pdfrwt beam="2">  1        2 0.18672718E-01 0.52787625E+02</pdfrwt>
<pdfrwt beam="1">  1       -2 0.88301889E-03 0.52787625E+02</pdfrwt>
<totfact> 0.55001461E+05</totfact>
</mgrwt>
</event>
<event>
 4    1  0.4834411E-002  0.5294542E+02  0.7818608E-02  0.1430073E+00
          2   -1    0    0    0  501  0.00000000000E+00  0.00000000000E+00  0.56365313458E+01  0.56365319226E+01  0.25500000000E-02 0. -1.
         -2   -1    0    0  501    0 -0.00000000000E+00 -0.00000000000E+00 -0.12433257422E+03  0.12433257424E+03  0.25500000000E-02 0. -1.
          2    1    1    2    0  502  0.17152429414E+02 -0.19514175320E+02 -0.46880371187E+02  0.53598302980E+02  0.25500000000E-02 0. -1.
         -2    1    1    2  502    0 -0.17152429414E+02  0.19514175320E+02 -0.71815671685E+02  0.76370803186E+02  0.25500000000E-02 0. -1.
<mgrwt>
<rscale>  0 0.52945424E+02</rscale>
<asrwt>0</asrwt>
<pdfrwt beam="1">  1        2 0.86715880E-03 0.52945424E+02</pdfrwt>
<pdfrwt beam="2">  1       -2 0.19128086E-01 0.52945424E+02</pdfrwt>
<totfact> 0.28913313E+05</totfact>
</mgrwt>
</event>
<event>
 4    1  0.4834411E-002  0.5911985E+02  0.7818608E-02  0.1401563E+00
          2   -1    0    0    0  501  0.00000000000E+00  0.00000000000E+00  0.16306075219E+03  0.16306075221E+03  0.25500000000E-02 0. -1.
         -2   -1    0    0  501    0 -0.00000000000E+00 -0.00000000000E+00 -0.53586721102E+01  0.53586727169E+01  0.25500000000E-02 0. -1.
          2    1    1    2    0  502 -0.25102440400E+02 -0.36762807083E+01  0.35633860506E+02  0.43742651668E+02  0.25500000000E-02 0. -1.
         -2    1    1    2  502    0  0.25102440400E+02  0.36762807083E+01  0.12206821958E+03  0.12467677326E+03  0.25500000000E-02 0. -1.
<mgrwt>
<rscale>  0 0.59119850E+02</rscale>
<asrwt>0</asrwt>
<pdfrwt beam="1">  1        2 0.25086269E-01 0.59119850E+02</pdfrwt>
<pdfrwt beam="2">  1       -2 0.82441115E-03 0.59119850E+02</pdfrwt>
<totfact> 0.45043981E+05</totfact>
</mgrwt>
</event>
<event>
 4    1  0.4834411E-002  0.9130970E+02  0.7818608E-02  0.1299711E+00
         -2   -1    0    0  501    0 -0.00000000000E+00  0.00000000000E+00  0.30720450173E+01  0.30720460757E+01  0.25500000000E-02 0.  1.
          2   -1    0    0    0  501  0.00000000000E+00 -0.00000000000E+00 -0.67849426723E+03  0.67849426723E+03  0.25500000000E-02 0.  1.
          2    1    1    2    0  502 -0.22136452670E+02 -0.19221078784E+02 -0.59895146306E+03  0.59966851469E+03  0.25500000000E-02 0.  1.
         -2    1    1    2  502    0  0.22136452670E+02  0.19221078784E+02 -0.76470759153E+02  0.81897798617E+02  0.25500000000E-02 0.  1.
<mgrwt>
<rscale>  0 0.91309699E+02</rscale>
<asrwt>0</asrwt>
<pdfrwt beam="2">  1        2 0.10438361E+00 0.91309699E+02</pdfrwt>
<pdfrwt beam="1">  1       -2 0.47262293E-03 0.91309699E+02</pdfrwt>
<totfact> 0.23448067E+05</totfact>
</mgrwt>
</event>
<event>
 4    1  0.4834411E-002  0.4790705E+02  0.7818608E-02  0.1456969E+00
         -2   -1    0    0  501    0 -0.00000000000E+00  0.00000000000E+00  0.15949546107E+01  0.15949566492E+01  0.25500000000E-02 0. -1.
          2   -1    0    0    0  501  0.00000000000E+00 -0.00000000000E+00 -0.35974123057E+03  0.35974123057E+03  0.25500000000E-02 0. -1.
          2    1    1    2    0  502  0.48766058965E+01 -0.22979631065E+02 -0.21439124254E+03  0.21567440648E+03  0.25500000000E-02 0.  1.
         -2    1    1    2  502    0 -0.48766058965E+01  0.22979631065E+02 -0.14375503342E+03  0.14566178074E+03  0.25500000000E-02 0.  1.
<mgrwt>
<rscale>  0 0.47907048E+02</rscale>
<asrwt>0</asrwt>
<pdfrwt beam="2">  1        2 0.55344740E-01 0.47907048E+02</pdfrwt>
<pdfrwt beam="1">  1       -2 0.24537808E-03 0.47907048E+02</pdfrwt>
<totfact> 0.10015841E+06</totfact>
</mgrwt>
</event>
<event>
 4    1  0.4834411E-002  0.5602157E+02  0.7818608E-02  0.1415329E+00
         -2   -1    0    0  501    0 -0.00000000000E+00  0.00000000000E+00  0.31638500204E+03  0.31638500206E+03  0.25500000000E-02 0. -1.
          2   -1    0    0    0  501  0.00000000000E+00 -0.00000000000E+00 -0.24799021406E+01  0.24799034517E+01  0.25500000000E-02 0. -1.
          2    1    1    2    0  502 -0.18205071315E+02 -0.13770440465E+02  0.64549440581E+02  0.68466633757E+02  0.25500000000E-02 0.  1.
         -2    1    1    2  502    0  0.18205071315E+02  0.13770440465E+02  0.24935565932E+03  0.25039827175E+03  0.25500000000E-02 0.  1.
<mgrwt>
<rscale>  0 0.56021569E+02</rscale>
<asrwt>0</asrwt>
<pdfrwt beam="2">  1        2 0.38152344E-03 0.56021569E+02</pdfrwt>
<pdfrwt beam="1">  1       -2 0.48674625E-01 0.56021569E+02</pdfrwt>
<totfact> 0.17013189E+05</totfact>
</mgrwt>
</event>
<event>
 4    1  0.4834411E-002  0.4263546E+02  0.7818608E-02  0.1489667E+00
         -2   -1    0    0  501    0 -0.00000000000E+00  0.00000000000E+00  0.12029494142E+03  0.12029494145E+03  0.25500000000E-02 0.  1.
          2   -1    0    0    0  501  0.00000000000E+00 -0.00000000000E+00 -0.37777613067E+01  0.37777621673E+01  0.25500000000E-02 0.  1.
          2    1    1    2    0  502  0.13163914031E+02  0.16701756752E+02  0.53934093593E+02  0.57975199606E+02  0.25500000000E-02 0. -1.
         -2    1    1    2  502    0 -0.13163914031E+02 -0.16701756752E+02  0.62583086525E+02  0.66097504013E+02  0.25500000000E-02 0. -1.
<mgrwt>
<rscale>  0 0.42635461E+02</rscale>
<asrwt>0</asrwt>
<pdfrwt beam="2">  1        2 0.58119393E-03 0.42635461E+02</pdfrwt>
<pdfrwt beam="1">  1       -2 0.18506920E-01 0.42635461E+02</pdfrwt>
<totfact> 0.49471978E+05</totfact>
</mgrwt>
</event>
<event>
 4    1  0.4834411E-002  0.7606746E+02  0.7818608E-02  0.1340597E+00
          2   -1    0    0    0  501  0.00000000000E+00  0.00000000000E+00  0.21264281821E+03  0.21264281822E+03  0.25500000000E-02 0. -1.
         -2   -1    0    0  501    0 -0.00000000000E+00 -0.00000000000E+00 -0.68027898787E+01  0.68027903566E+01  0.25500000000E-02 0. -1.
          2    1    1    2    0  502 -0.35779824175E+02  0.16804918617E+01  0.13981319420E+03  0.14432861515E+03  0.25500000000E-02 0. -1.
         -2    1    1    2  502    0  0.35779824175E+02 -0.16804918617E+01  0.66026834126E+02  0.75116993431E+02  0.25500000000E-02 0. -1.
<mgrwt>
<rscale>  0 0.76067456E+02</rscale>
<asrwt>0</asrwt>
<pdfrwt beam="1">  1        2 0.32714278E-01 0.76067456E+02</pdfrwt>
<pdfrwt beam="2">  1       -2 0.10465831E-02 0.76067456E+02</pdfrwt>
<totfact> 0.25605104E+05</totfact>
</mgrwt>
</event>
<event>
 4    1  0.4834411E-002  0.5651626E+02  0.7818608E-02  0.1413061E+00
          2   -1    0    0    0  501  0.00000000000E+00  0.00000000000E+00  0.40799432701E+03  0.40799432702E+03  0.25500000000E-02 0. -1.
         -2   -1    0    0  501    0 -0.00000000000E+00 -0.00000000000E+00 -0.19571877250E+01  0.19571893862E+01  0.25500000000E-02 0. -1.
          2    1    1    2    0  502  0.38410836924E+01 -0.21300649936E+02  0.33479845127E+03  0.33549735407E+03  0.25500000000E-02 0.  1.
         -2    1    1    2  502    0 -0.38410836924E+01  0.21300649936E+02  0.71238688015E+02  0.74454162330E+02  0.25500000000E-02 0.  1.
<mgrwt>
<rscale>  0 0.56516257E+02</rscale>
<asrwt>0</asrwt>
<pdfrwt beam="1">  1        2 0.62768487E-01 0.56516257E+02</pdfrwt>
<pdfrwt beam="2">  1       -2 0.30110531E-03 0.56516257E+02</pdfrwt>
<totfact> 0.69242625E+05</totfact>
</mgrwt>
</event>
<event>
 4    1  0.4834411E-002  0.4329978E+02  0.7818608E-02  0.1485244E+00
         -2   -1    0    0  501    0 -0.00000000000E+00  0.00000000000E+00  0.12093644613E+01  0.12093671497E+01  0.25500000000E-02 0. -1.
          2   -1    0    0    0  501  0.00000000000E+00 -0.00000000000E+00 -0.38757322001E+03  0.38757322002E+03  0.25500000000E-02 0. -1.
          2    1    1    2    0  502 -0.13672034437E+02 -0.16028575866E+02 -0.23796656349E+03  0.23889731081E+03  0.25500000000E-02 0.  1.
         -2    1    1    2  502    0  0.13672034437E+02  0.16028575866E+02 -0.14839729206E+03  0.14988527635E+03  0.25500000000E-02 0.  1.
<mgrwt>
<rscale>  0 0.43299783E+02</rscale>
<asrwt>0</asrwt>
<pdfrwt beam="2">  1        2 0.59626550E-01 0.43299783E+02</pdfrwt>
<pdfrwt beam="1">  1       -2 0.18605659E-03 0.43299783E+02</pdfrwt>
<totfact> 0.13165436E+06</totfact>
</mgrwt>
</event>
<event>
 4    1  0.4834411E-002  0.1021532E+03  0.7818608E-02  0.1275832E+00
         -2   -1    0    0  501    0 -0.00000000000E+00  0.00000000000E+00  0.64257977852E+01  0.64257982912E+01  0.25500000000E-02 0.  1.
          2   -1    0    0    0  501  0.00000000000E+00 -0.00000000000E+00 -0.40599182897E+03  0.40599182898E+03  0.25500000000E-02 0.  1.
          2    1    1    2    0  502 -0.45487481780E+02 -0.22077549590E+02 -0.17058832247E+03  0.17792387407E+03  0.25500000000E-02 0. -1.
         -2    1    1    2  502    0  0.45487481780E+02  0.22077549590E+02 -0.22897770872E+03  0.23449375320E+03  0.25500000000E-02 0. -1.
<mgrwt>
<rscale>  0 0.10215325E+03</rscale>
<asrwt>0</asrwt>
<pdfrwt beam="2">  1        2 0.62460261E-01 0.10215325E+03</pdfrwt>
<pdfrwt beam="1">  1       -2 0.98858463E-03 0.10215325E+03</pdfrwt>
<totfact> 0.14813229E+05</totfact>
</mgrwt>
</event>
<event>
 4    1  0.4834411E-002  0.4235591E+02  0.7818608E-02  0.1491557E+00
         -2   -1    0    0  501    0 -0.00000000000E+00  0.00000000000E+00  0.17696564247E+01  0.17696582619E+01  0.25500000000E-02 0.  1.
          2   -1    0    0    0  501  0.00000000000E+00 -0.00000000000E+00 -0.25344220752E+03  0.25344220753E+03  0.25500000000E-02 0.  1.
          2    1    1    2    0  502 -0.14985869847E+02  0.14913581165E+02 -0.13325184817E+03  0.13491866530E+03  0.25500000000E-02 0.  1.
         -2    1    1    2  502    0  0.14985869847E+02 -0.14913581165E+02 -0.11842070293E+03  0.12029320050E+03  0.25500000000E-02 0.  1.
<mgrwt>
<rscale>  0 0.42355914E+02</rscale>
<asrwt>0</asrwt>
<pdfrwt beam="2">  1        2 0.38991080E-01 0.42355914E+02</pdfrwt>
<pdfrwt beam="1">  1       -2 0.27225518E-03 0.42355914E+02</pdfrwt>
<totfact> 0.12016721E+06</totfact>
</mgrwt>
</event>
<event>
 4    1  0.4834411E-002  0.9279549E+02  0.7818608E-02  0.1296220E+00
         -2   -1    0    0  501    0 -0.00000000000E+00  0.00000000000E+00  0.31177264416E+01  0.31177274844E+01  0.25500000000E-02 0. -1.
          2   -1    0    0    0  501  0.00000000000E+00 -0.00000000000E+00 -0.69048724264E+03  0.69048724264E+03  0.25500000000E-02 0. -1.
          2    1    1    2    0  502  0.39241810833E+02  0.12016030745E+02 -0.18190838711E+03  0.18648047088E+03  0.25500000000E-02 0.  1.
         -2    1    1    2  502    0 -0.39241810833E+02 -0.12016030745E+02 -0.50546112909E+03  0.50712449925E+03  0.25500000000E-02 0.  1.
<mgrwt>
<rscale>  0 0.92795489E+02</rscale>
<asrwt>0</asrwt>
<pdfrwt beam="2">  1        2 0.10622869E+00 0.92795489E+02</pdfrwt>
<pdfrwt beam="1">  1       -2 0.47965085E-03 0.92795489E+02</pdfrwt>
<totfact> 0.22564594E+05</totfact>
</mgrwt>
</event>
<event>
 4    1  0.4834411E-002  0.8255540E+02  0.7818608E-02  0.1321952E+00
         -2   -1    0    0  501    0 -0.00000000000E+00  0.00000000000E+00  0.18030383219E+01  0.18030401251E+01  0.25500000000E-02 0.  1.
          2   -1    0    0    0  501  0.00000000000E+00 -0.00000000000E+00 -0.94498698851E+03  0.94498698851E+03  0.25500000000E-02 0.  1.
          2    1    1    2    0  502 -0.37329476703E+02  0.35925737306E+01 -0.27379631425E+03  0.27635270601E+03  0.25500000000E-02 0.  1.
         -2    1    1    2  502    0  0.37329476703E+02 -0.35925737306E+01 -0.66938763593E+03  0.67043732262E+03  0.25500000000E-02 0.  1.
<mgrwt>
<rscale>  0 0.82555402E+02</rscale>
<asrwt>0</asrwt>
<pdfrwt beam="2">  1        2 0.14538222E+00 0.82555402E+02</pdfrwt>
<pdfrwt beam="1">  1       -2 0.27739140E-03 0.82555402E+02</pdfrwt>
<totfact> 0.32318143E+05</totfact>
</mgrwt>
</event>
<event>
 4    1  0.4834411E-002  0.6251727E+02  0.7818608E-02  0.1387562E+00
         -2   -1    0    0  501    0 -0.00000000000E+00  0.00000000000E+00  0.16691400579E+01  0.16691420058E+01  0.25500000000E-02 0. -1.
          2   -1    0    0    0  501  0.00000000000E+00 -0.00000000000E+00 -0.58539232469E+03  0.58539232470E+03  0.25500000000E-02 0. -1.
          2    1    1    2    0  502 -0.20602141485E+02  0.19839592097E+02 -0.41028652517E+03  0.41128225149E+03  0.25500000000E-02 0.  1.
         -2    1    1    2  502    0  0.20602141485E+02 -0.19839592097E+02 -0.17343665946E+03  0.17577921521E+03  0.25500000000E-02 0.  1.
<mgrwt>
<rscale>  0 0.62517273E+02</rscale>
<asrwt>0</asrwt>
<pdfrwt beam="2">  1        2 0.90060194E-01 0.62517273E+02</pdfrwt>
<pdfrwt beam="1">  1       -2 0.25679140E-03 0.62517273E+02</pdfrwt>
<totfact> 0.60121472E+05</totfact>
</mgrwt>
</event>
<event>
 4    1  0.4834411E-002  0.5746914E+02  0.7818608E-02  0.1408770E+00
         -2   -1    0    0  501    0 -0.00000000000E+00  0.00000000000E+00  0.40220693259E+02  0.40220693339E+02  0.25500000000E-02 0. -1.
          2   -1    0    0    0  501  0.00000000000E+00 -0.00000000000E+00 -0.20528627884E+02  0.20528628042E+02  0.25500000000E-02 0. -1.
          2    1    1    2    0  502 -0.11289424211E+02 -0.24439159589E+02  0.20467003479E+02  0.33817478593E+02  0.25500000000E-02 0. -1.
         -2    1    1    2  502    0  0.11289424211E+02  0.24439159589E+02 -0.77493810502E+00  0.26931842789E+02  0.25500000000E-02 0. -1.
<mgrwt>
<rscale>  0 0.57469145E+02</rscale>
<asrwt>0</asrwt>
<pdfrwt beam="2">  1        2 0.31582505E-02 0.57469145E+02</pdfrwt>
<pdfrwt beam="1">  1       -2 0.61877990E-02 0.57469145E+02</pdfrwt>
<totfact> 0.30349127E+05</totfact>
</mgrwt>
</event>
<event>
 4    1  0.4834411E-002  0.4463691E+02  0.7818608E-02  0.1476621E+00
         -2   -1    0    0  501    0 -0.00000000000E+00  0.00000000000E+00  0.14178005675E+01  0.14178028607E+01  0.25500000000E-02 0.  1.
          2   -1    0    0    0  501  0.00000000000E+00 -0.00000000000E+00 -0.35132800440E+03  0.35132800440E+03  0.25500000000E-02 0.  1.
          2    1    1    2    0  502  0.17904402064E+02  0.11525270908E+02 -0.22779832531E+03  0.22879133835E+03  0.25500000000E-02 0. -1.
         -2    1    1    2  502    0 -0.17904402064E+02 -0.11525270908E+02 -0.12211187852E+03  0.12395446892E+03  0.25500000000E-02 0. -1.
<mgrwt>
<rscale>  0 0.44636911E+02</rscale>
<asrwt>0</asrwt>
<pdfrwt beam="2">  1        2 0.54050393E-01 0.44636911E+02</pdfrwt>
<pdfrwt beam="1">  1       -2 0.21812362E-03 0.44636911E+02</pdfrwt>
<totfact> 0.11822823E+06</totfact>
</mgrwt>
</event>
<event>
 4    1  0.4834411E-002  0.4541188E+02  0.7818608E-02  0.1471787E+00
         -2   -1    0    0  501    0 -0.00000000000E+00  0.00000000000E+00  0.10941307652E+01  0.10941337367E+01  0.25500000000E-02 0.  1.
          2   -1    0    0    0  501  0.00000000000E+00 -0.00000000000E+00 -0.47120420868E+03  0.47120420868E+03  0.25500000000E-02 0.  1.
          2    1    1    2    0  502 -0.22003808062E+02  0.10839436464E+00 -0.17679427572E+03  0.17815834320E+03  0.25500000000E-02 0.  1.
         -2    1    1    2  502    0  0.22003808062E+02 -0.10839436464E+00 -0.29331580219E+03  0.29413999922E+03  0.25500000000E-02 0.  1.
<mgrwt>
<rscale>  0 0.45411881E+02</rscale>
<asrwt>0</asrwt>
<pdfrwt beam="2">  1        2 0.72492793E-01 0.45411881E+02</pdfrwt>
<pdfrwt beam="1">  1       -2 0.16832842E-03 0.45411881E+02</pdfrwt>
<totfact> 0.12494292E+06</totfact>
</mgrwt>
</event>
<event>
 4    1  0.4834411E-002  0.5350315E+02  0.7818608E-02  0.1427313E+00
          2   -1    0    0    0  501  0.00000000000E+00  0.00000000000E+00  0.15304145289E+03  0.15304145291E+03  0.25500000000E-02 0.  1.
         -2   -1    0    0  501    0 -0.00000000000E+00 -0.00000000000E+00 -0.46761624279E+01  0.46761631232E+01  0.25500000000E-02 0.  1.
          2    1    1    2    0  502  0.92074369551E+00  0.24432316300E+02  0.42180011504E+02  0.48753863700E+02  0.25500000000E-02 0. -1.
         -2    1    1    2  502    0 -0.92074369551E+00 -0.24432316300E+02  0.10618527896E+03  0.10896375233E+03  0.25500000000E-02 0. -1.
<mgrwt>
<rscale>  0 0.53503149E+02</rscale>
<asrwt>0</asrwt>
<pdfrwt beam="1">  1        2 0.23544842E-01 0.53503149E+02</pdfrwt>
<pdfrwt beam="2">  1       -2 0.71940956E-03 0.53503149E+02</pdfrwt>
<totfact> 0.56952920E+05</totfact>
</mgrwt>
</event>
<event>
 4    1  0.4834411E-002  0.5395771E+02  0.7818608E-02  0.1425093E+00
          2   -1    0    0    0  501  0.00000000000E+00  0.00000000000E+00  0.20650075496E+04  0.20650075496E+04  0.25500000000E-02 0. -1.
         -2   -1    0    0  501    0 -0.00000000000E+00 -0.00000000000E+00 -0.35246797108E+00  0.35247719520E+00  0.25500000000E-02 0. -1.
          2    1    1    2    0  502 -0.17343833628E+02 -0.20121292424E+02  0.85204321078E+03  0.85245721770E+03  0.25500000000E-02 0.  1.
         -2    1    1    2  502    0  0.17343833628E+02  0.20121292424E+02  0.12126118708E+04  0.12129028091E+04  0.25500000000E-02 0.  1.
<mgrwt>
<rscale>  0 0.53957707E+02</rscale>
<asrwt>0</asrwt>
<pdfrwt beam="1">  1        2 0.31768448E+00 0.53957707E+02</pdfrwt>
<pdfrwt beam="2">  1       -2 0.54228085E-04 0.53957707E+02</pdfrwt>
<totfact> 0.73811232E+05</totfact>
</mgrwt>
</event>
<event>
 4    1  0.4834411E-002  0.6353021E+02  0.7818608E-02  0.1383587E+00
         -2   -1    0    0  501    0 -0.00000000000E+00  0.00000000000E+00  0.46330813106E+01  0.46330820124E+01  0.25500000000E-02 0.  1.
          2   -1    0    0    0  501  0.00000000000E+00 -0.00000000000E+00 -0.21778632030E+03  0.21778632032E+03  0.25500000000E-02 0.  1.
          2    1    1    2    0  502  0.27669275727E+02  0.15562100917E+02 -0.11049711578E+03  0.11496686656E+03  0.25500000000E-02 0. -1.
         -2    1    1    2  502    0 -0.27669275727E+02 -0.15562100917E+02 -0.10265612321E+03  0.10745253577E+03  0.25500000000E-02 0. -1.
<mgrwt>
<rscale>  0 0.63530207E+02</rscale>
<asrwt>0</asrwt>
<pdfrwt beam="2">  1        2 0.33505580E-01 0.63530207E+02</pdfrwt>
<pdfrwt beam="1">  1       -2 0.71278196E-03 0.63530207E+02</pdfrwt>
<totfact> 0.41255255E+05</totfact>
</mgrwt>
</event>
<event>
 4    1  0.4834411E-002  0.4165633E+02  0.7818608E-02  0.1496365E+00
          2   -1    0    0    0  501  0.00000000000E+00  0.00000000000E+00  0.20798100027E+03  0.20798100028E+03  0.25500000000E-02 0. -1.
         -2   -1    0    0  501    0 -0.00000000000E+00 -0.00000000000E+00 -0.20858263404E+01  0.20858278991E+01  0.25500000000E-02 0. -1.
          2    1    1    2    0  502  0.67669542046E+01  0.18948217471E+02  0.13009754030E+03  0.13164420463E+03  0.25500000000E-02 0. -1.
         -2    1    1    2  502    0 -0.67669542046E+01 -0.18948217471E+02  0.75797633629E+02  0.78422623553E+02  0.25500000000E-02 0. -1.
<mgrwt>
<rscale>  0 0.41656328E+02</rscale>
<asrwt>0</asrwt>
<pdfrwt beam="1">  1        2 0.31997076E-01 0.41656328E+02</pdfrwt>
<pdfrwt beam="2">  1       -2 0.32089649E-03 0.41656328E+02</pdfrwt>
<totfact> 0.11716082E+06</totfact>
</mgrwt>
</event>
<event>
 4    1  0.4834411E-002  0.5052969E+02  0.7818608E-02  0.1442505E+00
         -2   -1    0    0  501    0 -0.00000000000E+00  0.00000000000E+00  0.70443133783E+01  0.70443138398E+01  0.25500000000E-02 0. -1.
          2   -1    0    0    0  501  0.00000000000E+00 -0.00000000000E+00 -0.90613865719E+02  0.90613865755E+02  0.25500000000E-02 0. -1.
          2    1    1    2    0  502  0.20624629353E+02 -0.12233364851E+02 -0.57159305348E+02  0.61985617250E+02  0.25500000000E-02 0.  1.
         -2    1    1    2  502    0 -0.20624629353E+02  0.12233364851E+02 -0.26410246993E+02  0.35672562345E+02  0.25500000000E-02 0.  1.
<mgrwt>
<rscale>  0 0.50529694E+02</rscale>
<asrwt>0</asrwt>
<pdfrwt beam="2">  1        2 0.13940594E-01 0.50529694E+02</pdfrwt>
<pdfrwt beam="1">  1       -2 0.10837406E-02 0.50529694E+02</pdfrwt>
<totfact> 0.56849667E+05</totfact>
</mgrwt>
</event>
<event>
 4    1  0.4834411E-002  0.4989302E+02  0.7818608E-02  0.1445919E+00
          2   -1    0    0    0  501  0.00000000000E+00  0.00000000000E+00  0.33240500994E+03  0.33240500995E+03  0.25500000000E-02 0. -1.
         -2   -1    0    0  501    0 -0.00000000000E+00 -0.00000000000E+00 -0.18721982248E+01  0.18721999614E+01  0.25500000000E-02 0. -1.
          2    1    1    2    0  502  0.84334302105E+01  0.23391598264E+02  0.15180191459E+03  0.15382493586E+03  0.25500000000E-02 0.  1.
         -2    1    1    2  502    0 -0.84334302105E+01 -0.23391598264E+02  0.17873089713E+03  0.18045227405E+03  0.25500000000E-02 0.  1.
<mgrwt>
<rscale>  0 0.49893020E+02</rscale>
<asrwt>0</asrwt>
<pdfrwt beam="1">  1        2 0.51139211E-01 0.49893020E+02</pdfrwt>
<pdfrwt beam="2">  1       -2 0.28803075E-03 0.49893020E+02</pdfrwt>
<totfact> 0.88136578E+05</totfact>
</mgrwt>
</event>
<event>
 4    1  0.4834411E-002  0.5760171E+02  0.7818608E-02  0.1408181E+00
         -2   -1    0    0  501    0 -0.00000000000E+00  0.00000000000E+00  0.81303026241E+02  0.81303026281E+02  0.25500000000E-02 0. -1.
          2   -1    0    0    0  501  0.00000000000E+00 -0.00000000000E+00 -0.10202439871E+02  0.10202440190E+02  0.25500000000E-02 0. -1.
          2    1    1    2    0  502 -0.26488887009E+02 -0.38289887697E+01  0.18650885624E+02  0.32621738627E+02  0.25500000000E-02 0. -1.
         -2    1    1    2  502    0  0.26488887009E+02  0.38289887697E+01  0.52449700745E+02  0.58883727843E+02  0.25500000000E-02 0. -1.
<mgrwt>
<rscale>  0 0.57601710E+02</rscale>
<asrwt>0</asrwt>
<pdfrwt beam="2">  1        2 0.15696061E-02 0.57601710E+02</pdfrwt>
<pdfrwt beam="1">  1       -2 0.12508158E-01 0.57601710E+02</pdfrwt>
<totfact> 0.26241050E+05</totfact>
</mgrwt>
</event>
<event>
 4    1  0.4834411E-002  0.4662381E+02  0.7818608E-02  0.1464452E+00
         -2   -1    0    0  501    0 -0.00000000000E+00  0.00000000000E+00  0.71302702962E+03  0.71302702963E+03  0.25500000000E-02 0.  1.
          2   -1    0    0    0  501  0.00000000000E+00 -0.00000000000E+00 -0.76216389842E+00  0.76216816422E+00  0.25500000000E-02 0.  1.
          2    1    1    2    0  502  0.11771294915E+02  0.17843080236E+02  0.49852440461E+03  0.49898248556E+03  0.25500000000E-02 0.  1.
         -2    1    1    2  502    0 -0.11771294915E+02 -0.17843080236E+02  0.21374046111E+03  0.21480671223E+03  0.25500000000E-02 0.  1.
<mgrwt>
<rscale>  0 0.46623813E+02</rscale>
<asrwt>0</asrwt>
<pdfrwt beam="2">  1        2 0.11725708E-03 0.46623813E+02</pdfrwt>
<pdfrwt beam="1">  1       -2 0.10969574E+00 0.46623813E+02</pdfrwt>
<totfact> 0.14466831E+05</totfact>
</mgrwt>
</event>
<event>
 4    1  0.4834411E-002  0.6014187E+02  0.7818608E-02  0.1397237E+00
         -2   -1    0    0  501    0 -0.00000000000E+00  0.00000000000E+00  0.13465950155E+03  0.13465950158E+03  0.25500000000E-02 0. -1.
          2   -1    0    0    0  501  0.00000000000E+00 -0.00000000000E+00 -0.67151670051E+01  0.67151674892E+01  0.25500000000E-02 0. -1.
          2    1    1    2    0  502  0.28337906327E+02  0.84242021251E+01  0.51041906172E+02  0.58985424543E+02  0.25500000000E-02 0. -1.
         -2    1    1    2  502    0 -0.28337906327E+02 -0.84242021251E+01  0.76902428377E+02  0.82389244524E+02  0.25500000000E-02 0. -1.
<mgrwt>
<rscale>  0 0.60141868E+02</rscale>
<asrwt>0</asrwt>
<pdfrwt beam="2">  1        2 0.10331027E-02 0.60141868E+02</pdfrwt>
<pdfrwt beam="1">  1       -2 0.20716846E-01 0.60141868E+02</pdfrwt>
<totfact> 0.20595354E+05</totfact>
</mgrwt>
</event>
<event>
 4    1  0.4834411E-002  0.6978584E+02  0.7818608E-02  0.1360823E+00
         -2   -1    0    0  501    0 -0.00000000000E+00  0.00000000000E+00  0.17801049589E+02  0.17801049772E+02  0.25500000000E-02 0.  1.
          2   -1    0    0    0  501  0.00000000000E+00 -0.00000000000E+00 -0.68395739397E+02  0.68395739445E+02  0.25500000000E-02 0.  1.
          2    1    1    2    0  502  0.89879305675E+01  0.24291055762E+02 -0.54176828811E+02  0.60049705015E+02  0.25500000000E-02 0. -1.
         -2    1    1    2  502    0 -0.89879305675E+01 -0.24291055762E+02  0.35821390025E+01  0.26147084201E+02  0.25500000000E-02 0. -1.
<mgrwt>
<rscale>  0 0.69785843E+02</rscale>
<asrwt>0</asrwt>
<pdfrwt beam="2">  1        2 0.10522421E-01 0.69785843E+02</pdfrwt>
<pdfrwt beam="1">  1       -2 0.27386231E-02 0.69785843E+02</pdfrwt>
<totfact> 0.22859073E+05</totfact>
</mgrwt>
</event>
<event>
 4    1  0.4834411E-002  0.1097956E+03  0.7818608E-02  0.1260949E+00
         -2   -1    0    0  501    0 -0.00000000000E+00  0.00000000000E+00  0.64761337063E+01  0.64761342084E+01  0.25500000000E-02 0.  1.
          2   -1    0    0    0  501  0.00000000000E+00 -0.00000000000E+00 -0.46536567493E+03  0.46536567493E+03  0.25500000000E-02 0.  1.
          2    1    1    2    0  502 -0.13969128598E+02 -0.14594406012E+02 -0.10079277453E+02  0.22577091954E+02  0.25500000000E-02 0. -1.
         -2    1    1    2  502    0  0.13969128598E+02  0.14594406012E+02 -0.44881026377E+03  0.44926471719E+03  0.25500000000E-02 0. -1.
<mgrwt>
<rscale>  0 0.10979564E+03</rscale>
<asrwt>0</asrwt>
<pdfrwt beam="2">  1        2 0.71594693E-01 0.10979564E+03</pdfrwt>
<pdfrwt beam="1">  1       -2 0.99632867E-03 0.10979564E+03</pdfrwt>
<totfact> 0.12800028E+05</totfact>
</mgrwt>
</event>
<event>
 4    1  0.4834411E-002  0.5985251E+02  0.7818608E-02  0.1398452E+00
          2   -1    0    0    0  501  0.00000000000E+00  0.00000000000E+00  0.17270812081E+01  0.17270830906E+01  0.25500000000E-02 0.  1.
         -2   -1    0    0  501    0 -0.00000000000E+00 -0.00000000000E+00 -0.51855124395E+03  0.51855124396E+03  0.25500000000E-02 0.  1.
          2    1    1    2    0  502 -0.43326207273E+01  0.27749229246E+02 -0.34824121367E+03  0.34937191391E+03  0.25500000000E-02 0.  1.
         -2    1    1    2  502    0  0.43326207273E+01 -0.27749229246E+02 -0.16858294907E+03  0.17090641313E+03  0.25500000000E-02 0.  1.
<mgrwt>
<rscale>  0 0.59852505E+02</rscale>
<asrwt>0</asrwt>
<pdfrwt beam="1">  1        2 0.26570536E-03 0.59852505E+02</pdfrwt>
<pdfrwt beam="2">  1       -2 0.79776991E-01 0.59852505E+02</pdfrwt>
<totfact> 0.10315252E+05</totfact>
</mgrwt>
</event>
<event>
 4    1  0.4834411E-002  0.7781134E+02  0.7818608E-02  0.1335380E+00
         -2   -1    0    0  501    0 -0.00000000000E+00  0.00000000000E+00  0.66978474486E+01  0.66978479340E+01  0.25500000000E-02 0.  1.
          2   -1    0    0    0  501  0.00000000000E+00 -0.00000000000E+00 -0.22599070294E+03  0.22599070296E+03  0.25500000000E-02 0.  1.
          2    1    1    2    0  502  0.11201453044E+02 -0.34072048599E+02 -0.64564007445E+02  0.73857214339E+02  0.25500000000E-02 0.  1.
         -2    1    1    2  502    0 -0.11201453044E+02  0.34072048599E+02 -0.15472884805E+03  0.15883133655E+03  0.25500000000E-02 0.  1.
<mgrwt>
<rscale>  0 0.77811344E+02</rscale>
<asrwt>0</asrwt>
<pdfrwt beam="2">  1        2 0.34767795E-01 0.77811344E+02</pdfrwt>
<pdfrwt beam="1">  1       -2 0.10304383E-02 0.77811344E+02</pdfrwt>
<totfact> 0.24649817E+05</totfact>
</mgrwt>
</event>
<event>
 4    1  0.4834411E-002  0.5375367E+02  0.7818608E-02  0.1426086E+00
          2   -1    0    0    0  501  0.00000000000E+00  0.00000000000E+00  0.27108766955E+02  0.27108767075E+02  0.25500000000E-02 0.  1.
         -2   -1    0    0  501    0 -0.00000000000E+00 -0.00000000000E+00 -0.26646886286E+02  0.26646886408E+02  0.25500000000E-02 0.  1.
          2    1    1    2    0  502 -0.17972089182E+02 -0.18817667587E+02 -0.64971328880E+01  0.26820017622E+02  0.25500000000E-02 0. -1.
         -2    1    1    2  502    0  0.17972089182E+02  0.18817667587E+02  0.69590135575E+01  0.26935635860E+02  0.25500000000E-02 0. -1.
<mgrwt>
<rscale>  0 0.53753669E+02</rscale>
<asrwt>0</asrwt>
<pdfrwt beam="1">  1        2 0.41705795E-02 0.53753669E+02</pdfrwt>
<pdfrwt beam="2">  1       -2 0.40995210E-02 0.53753669E+02</pdfrwt>
<totfact> 0.38136720E+05</totfact>
</mgrwt>
</event>
<event>
 4    1  0.4834411E-002  0.4246444E+02  0.7818608E-02  0.1490821E+00
         -2   -1    0    0  501    0 -0.00000000000E+00  0.00000000000E+00  0.24507019538E+00  0.24508346163E+00  0.25500000000E-02 0. -1.
          2   -1    0    0    0  501  0.00000000000E+00 -0.00000000000E+00 -0.18394521090E+04  0.18394521090E+04  0.25500000000E-02 0. -1.
          2    1    1    2    0  502 -0.16654383191E+02 -0.11595943193E+02 -0.11900624153E+04  0.11902354333E+04  0.25500000000E-02 0. -1.
         -2    1    1    2  502    0  0.16654383191E+02  0.11595943193E+02 -0.64914462355E+03  0.64946175920E+03  0.25500000000E-02 0. -1.
<mgrwt>
<rscale>  0 0.42464437E+02</rscale>
<asrwt>0</asrwt>
<pdfrwt beam="2">  1        2 0.28298158E+00 0.42464437E+02</pdfrwt>
<pdfrwt beam="1">  1       -2 0.37705601E-04 0.42464437E+02</pdfrwt>
<totfact> 0.14734648E+06</totfact>
</mgrwt>
</event>
<event>
 4    1  0.4834411E-002  0.5058312E+02  0.7818608E-02  0.1442221E+00
         -2   -1    0    0  501    0 -0.00000000000E+00  0.00000000000E+00  0.44392784560E+00  0.44393516937E+00  0.25500000000E-02 0. -1.
          2   -1    0    0    0  501  0.00000000000E+00 -0.00000000000E+00 -0.14409048014E+04  0.14409048015E+04  0.25500000000E-02 0. -1.
          2    1    1    2    0  502  0.18397563893E+02 -0.17263499901E+02 -0.77091771093E+03  0.77133041935E+03  0.25500000000E-02 0.  1.
         -2    1    1    2  502    0 -0.18397563893E+02  0.17263499901E+02 -0.66954316267E+03  0.67001831727E+03  0.25500000000E-02 0.  1.
<mgrwt>
<rscale>  0 0.50583121E+02</rscale>
<asrwt>0</asrwt>
<pdfrwt beam="2">  1        2 0.22167392E+00 0.50583121E+02</pdfrwt>
<pdfrwt beam="1">  1       -2 0.68298309E-04 0.50583121E+02</pdfrwt>
<totfact> 0.10793333E+06</totfact>
</mgrwt>
</event>
<event>
 4    1  0.4834411E-002  0.4384173E+02  0.7818608E-02  0.1481705E+00
          2   -1    0    0    0  501  0.00000000000E+00  0.00000000000E+00  0.37704610610E+01  0.37704619233E+01  0.25500000000E-02 0. -1.
         -2   -1    0    0  501    0 -0.00000000000E+00 -0.00000000000E+00 -0.12744445273E+03  0.12744445276E+03  0.25500000000E-02 0. -1.
          2    1    1    2    0  502  0.12272550789E+02 -0.16297583193E+02 -0.37837996995E+02  0.42987681304E+02  0.25500000000E-02 0. -1.
         -2    1    1    2  502    0 -0.12272550789E+02  0.16297583193E+02 -0.85835994676E+02  0.88227233377E+02  0.25500000000E-02 0. -1.
<mgrwt>
<rscale>  0 0.43841734E+02</rscale>
<asrwt>0</asrwt>
<pdfrwt beam="1">  1        2 0.58007110E-03 0.43841734E+02</pdfrwt>
<pdfrwt beam="2">  1       -2 0.19606836E-01 0.43841734E+02</pdfrwt>
<totfact> 0.45482149E+05</totfact>
</mgrwt>
</event>
<event>
 4    1  0.4834411E-002  0.4814994E+02  0.7818608E-02  0.1455584E+00
         -2   -1    0    0  501    0 -0.00000000000E+00  0.00000000000E+00  0.52651757510E+03  0.52651757511E+03  0.25500000000E-02 0. -1.
          2   -1    0    0    0  501  0.00000000000E+00 -0.00000000000E+00 -0.11008242403E+01  0.11008271938E+01  0.25500000000E-02 0. -1.
          2    1    1    2    0  502 -0.16224156819E+02 -0.17337092296E+02  0.30627319256E+03  0.30719223056E+03  0.25500000000E-02 0. -1.
         -2    1    1    2  502    0  0.16224156819E+02  0.17337092296E+02  0.21914355830E+03  0.22042617174E+03  0.25500000000E-02 0. -1.
<mgrwt>
<rscale>  0 0.48149936E+02</rscale>
<asrwt>0</asrwt>
<pdfrwt beam="2">  1        2 0.16935795E-03 0.48149936E+02</pdfrwt>
<pdfrwt beam="1">  1       -2 0.81002632E-01 0.48149936E+02</pdfrwt>
<totfact> 0.17455874E+05</totfact>
</mgrwt>
</event>
<event>
 4    1  0.4834411E-002  0.4509826E+02  0.7818608E-02  0.1473729E+00
         -2   -1    0    0  501    0 -0.00000000000E+00  0.00000000000E+00  0.57993052987E+00  0.57993613612E+00  0.25500000000E-02 0.  1.
          2   -1    0    0    0  501  0.00000000000E+00 -0.00000000000E+00 -0.87676141097E+03  0.87676141097E+03  0.25500000000E-02 0.  1.
          2    1    1    2    0  502 -0.64955723135E+01 -0.20813996524E+02 -0.32625435925E+03  0.32698214301E+03  0.25500000000E-02 0.  1.
         -2    1    1    2  502    0  0.64955723135E+01  0.20813996524E+02 -0.54992712119E+03  0.55035920410E+03  0.25500000000E-02 0.  1.
<mgrwt>
<rscale>  0 0.45098256E+02</rscale>
<asrwt>0</asrwt>
<pdfrwt beam="2">  1        2 0.13488531E+00 0.45098256E+02</pdfrwt>
<pdfrwt beam="1">  1       -2 0.89221215E-04 0.45098256E+02</pdfrwt>
<totfact> 0.14745854E+06</totfact>
</mgrwt>
</event>
<event>
 4    1  0.4834411E-002  0.6413930E+02  0.7818608E-02  0.1381239E+00
          2   -1    0    0    0  501  0.00000000000E+00  0.00000000000E+00  0.91609314163E+03  0.91609314163E+03  0.25500000000E-02 0. -1.
         -2   -1    0    0  501    0 -0.00000000000E+00 -0.00000000000E+00 -0.11226601609E+01  0.11226630569E+01  0.25500000000E-02 0. -1.
          2    1    1    2    0  502 -0.57706847942E+01 -0.31473380390E+02  0.48811648994E+03  0.48916416696E+03  0.25500000000E-02 0. -1.
         -2    1    1    2  502    0  0.57706847942E+01  0.31473380390E+02  0.42685399153E+03  0.42805163773E+03  0.25500000000E-02 0. -1.
<mgrwt>
<rscale>  0 0.64139305E+02</rscale>
<asrwt>0</asrwt>
<pdfrwt beam="1">  1        2 0.14093805E+00 0.64139305E+02</pdfrwt>
<pdfrwt beam="2">  1       -2 0.17271639E-03 0.64139305E+02</pdfrwt>
<totfact> 0.61695816E+05</totfact>
</mgrwt>
</event>
<event>
 4    1  0.4834411E-002  0.4932482E+02  0.7818608E-02  0.1449018E+00
          2   -1    0    0    0  501  0.00000000000E+00  0.00000000000E+00  0.76853887169E+02  0.76853887211E+02  0.25500000000E-02 0. -1.
         -2   -1    0    0  501    0 -0.00000000000E+00 -0.00000000000E+00 -0.79141671920E+01  0.79141676028E+01  0.25500000000E-02 0. -1.
          2    1    1    2    0  502 -0.12135824836E+02 -0.21160314263E+02  0.40713107637E+02  0.47461503180E+02  0.25500000000E-02 0. -1.
         -2    1    1    2  502    0  0.12135824836E+02  0.21160314263E+02  0.28226612340E+02  0.37306551634E+02  0.25500000000E-02 0. -1.
<mgrwt>
<rscale>  0 0.49324823E+02</rscale>
<asrwt>0</asrwt>
<pdfrwt beam="1">  1        2 0.11823675E-01 0.49324823E+02</pdfrwt>
<pdfrwt beam="2">  1       -2 0.12175642E-02 0.49324823E+02</pdfrwt>
<totfact> 0.58103832E+05</totfact>
</mgrwt>
</event>
<event>
 4    1  0.4834411E-002  0.6157119E+02  0.7818608E-02  0.1391354E+00
         -2   -1    0    0  501    0 -0.00000000000E+00  0.00000000000E+00  0.11715506150E+02  0.11715506427E+02  0.25500000000E-02 0.  1.
          2   -1    0    0    0  501  0.00000000000E+00 -0.00000000000E+00 -0.80897298607E+02  0.80897298648E+02  0.25500000000E-02 0.  1.
          2    1    1    2    0  502 -0.20869779641E+02 -0.38871054381E+01 -0.10547291597E+01  0.21254875936E+02  0.25500000000E-02 0.  1.
         -2    1    1    2  502    0  0.20869779641E+02  0.38871054381E+01 -0.68127063298E+02  0.71357929139E+02  0.25500000000E-02 0.  1.
<mgrwt>
<rscale>  0 0.61571189E+02</rscale>
<asrwt>0</asrwt>
<pdfrwt beam="2">  1        2 0.12445738E-01 0.61571189E+02</pdfrwt>
<pdfrwt beam="1">  1       -2 0.18023856E-02 0.61571189E+02</pdfrwt>
<totfact> 0.33197274E+05</totfact>
</mgrwt>
</event>
<event>
 4    1  0.4834411E-002  0.5567723E+02  0.7818608E-02  0.1416923E+00
         -2   -1    0    0  501    0 -0.00000000000E+00  0.00000000000E+00  0.12226992883E+01  0.12227019473E+01  0.25500000000E-02 0. -1.
          2   -1    0    0    0  501  0.00000000000E+00 -0.00000000000E+00 -0.63383348849E+03  0.63383348850E+03  0.25500000000E-02 0. -1.
          2    1    1    2    0  502 -0.11413921477E+02  0.22534367396E+02 -0.18284350056E+03  0.18458012087E+03  0.25500000000E-02 0.  1.
         -2    1    1    2  502    0  0.11413921477E+02 -0.22534367396E+02 -0.44976728864E+03  0.45047606957E+03  0.25500000000E-02 0.  1.
<mgrwt>
<rscale>  0 0.55677234E+02</rscale>
<asrwt>0</asrwt>
<pdfrwt beam="2">  1        2 0.97512582E-01 0.55677234E+02</pdfrwt>
<pdfrwt beam="1">  1       -2 0.18810829E-03 0.55677234E+02</pdfrwt>
<totfact> 0.82244878E+05</totfact>
</mgrwt>
</event>
<event>
 4    1  0.4834411E-002  0.5161340E+02  0.7818608E-02  0.1436829E+00
         -2   -1    0    0  501    0 -0.00000000000E+00  0.00000000000E+00  0.10194345445E+01  0.10194377337E+01  0.25500000000E-02 0.  1.
          2   -1    0    0    0  501  0.00000000000E+00 -0.00000000000E+00 -0.65328837237E+03  0.65328837237E+03  0.25500000000E-02 0.  1.
          2    1    1    2    0  502 -0.19326015982E+02 -0.17042955829E+02 -0.34419002866E+03  0.34515320232E+03  0.25500000000E-02 0.  1.
         -2    1    1    2  502    0  0.19326015982E+02  0.17042955829E+02 -0.30807890916E+03  0.30915460779E+03  0.25500000000E-02 0.  1.
<mgrwt>
<rscale>  0 0.51613401E+02</rscale>
<asrwt>0</asrwt>
<pdfrwt beam="2">  1        2 0.10050557E+00 0.51613401E+02</pdfrwt>
<pdfrwt beam="1">  1       -2 0.15683685E-03 0.51613401E+02</pdfrwt>
<totfact> 0.10008728E+06</totfact>
</mgrwt>
</event>
<event>
 4    1  0.4834411E-002  0.4010306E+02  0.7818608E-02  0.1507454E+00
          2   -1    0    0    0  501  0.00000000000E+00  0.00000000000E+00  0.35660299879E+03  0.35660299880E+03  0.25500000000E-02 0. -1.
         -2   -1    0    0  501    0 -0.00000000000E+00 -0.00000000000E+00 -0.11274814863E+01  0.11274843699E+01  0.25500000000E-02 0. -1.
          2    1    1    2    0  502 -0.19168916316E+02 -0.58670030713E+01  0.17380157727E+03  0.17495387205E+03  0.25500000000E-02 0.  1.
         -2    1    1    2  502    0  0.19168916316E+02  0.58670030713E+01  0.18167394004E+03  0.18277661112E+03  0.25500000000E-02 0.  1.
<mgrwt>
<rscale>  0 0.40103057E+02</rscale>
<asrwt>0</asrwt>
<pdfrwt beam="1">  1        2 0.54862061E-01 0.40103057E+02</pdfrwt>
<pdfrwt beam="2">  1       -2 0.17345872E-03 0.40103057E+02</pdfrwt>
<totfact> 0.15418661E+06</totfact>
</mgrwt>
</event>
<event>
 4    1  0.4834411E-002  0.7399169E+02  0.7818608E-02  0.1347022E+00
          2   -1    0    0    0  501  0.00000000000E+00  0.00000000000E+00  0.35308480618E+03  0.35308480619E+03  0.25500000000E-02 0. -1.
         -2   -1    0    0  501    0 -0.00000000000E+00 -0.00000000000E+00 -0.38763844334E+01  0.38763852721E+01  0.25500000000E-02 0. -1.
          2    1    1    2    0  502 -0.13991034961E+02 -0.24685568153E+02  0.28913191077E+03  0.29052089110E+03  0.25500000000E-02 0. -1.
         -2    1    1    2  502    0  0.13991034961E+02  0.24685568153E+02  0.60076510975E+02  0.66440300359E+02  0.25500000000E-02 0. -1.
<mgrwt>
<rscale>  0 0.73991691E+02</rscale>
<asrwt>0</asrwt>
<pdfrwt beam="1">  1        2 0.54320754E-01 0.73991691E+02</pdfrwt>
<pdfrwt beam="2">  1       -2 0.59636674E-03 0.73991691E+02</pdfrwt>
<totfact> 0.33046113E+05</totfact>
</mgrwt>
</event>
<event>
 4    1  0.4834411E-002  0.4705746E+02  0.7818608E-02  0.1461891E+00
          2   -1    0    0    0  501  0.00000000000E+00  0.00000000000E+00  0.16319997883E+04  0.16319997883E+04  0.25500000000E-02 0.  1.
         -2   -1    0    0  501    0 -0.00000000000E+00 -0.00000000000E+00 -0.33921160290E+00  0.33922118749E+00  0.25500000000E-02 0.  1.
          2    1    1    2    0  502  0.13636609290E+02 -0.17669515181E+02  0.10740937469E+04  0.10743256239E+04  0.25500000000E-02 0.  1.
         -2    1    1    2  502    0 -0.13636609290E+02  0.17669515181E+02  0.55756682981E+03  0.55801338567E+03  0.25500000000E-02 0.  1.
<mgrwt>
<rscale>  0 0.47057458E+02</rscale>
<asrwt>0</asrwt>
<pdfrwt beam="1">  1        2 0.25107708E+00 0.47057458E+02</pdfrwt>
<pdfrwt beam="2">  1       -2 0.52187098E-04 0.47057458E+02</pdfrwt>
<totfact> 0.12286660E+06</totfact>
</mgrwt>
</event>
<event>
 4    1  0.4834411E-002  0.4386305E+02  0.7818608E-02  0.1481567E+00
         -2   -1    0    0  501    0 -0.00000000000E+00  0.00000000000E+00  0.21617713137E+01  0.21617728177E+01  0.25500000000E-02 0. -1.
          2   -1    0    0    0  501  0.00000000000E+00 -0.00000000000E+00 -0.22249883437E+03  0.22249883438E+03  0.25500000000E-02 0. -1.
          2    1    1    2    0  502 -0.16962536231E+02 -0.13128822715E+02 -0.13358287208E+03  0.13529404030E+03  0.25500000000E-02 0.  1.
         -2    1    1    2  502    0  0.16962536231E+02  0.13128822715E+02 -0.86754190973E+02  0.89366566898E+02  0.25500000000E-02 0.  1.
<mgrwt>
<rscale>  0 0.43863049E+02</rscale>
<asrwt>0</asrwt>
<pdfrwt beam="2">  1        2 0.34230572E-01 0.43863049E+02</pdfrwt>
<pdfrwt beam="1">  1       -2 0.33258049E-03 0.43863049E+02</pdfrwt>
<totfact> 0.10556686E+06</totfact>
</mgrwt>
</event>
<event>
 4    1  0.4834411E-002  0.4139328E+02  0.7818608E-02  0.1498202E+00
         -2   -1    0    0  501    0 -0.00000000000E+00  0.00000000000E+00  0.50854680167E+01  0.50854686560E+01  0.25500000000E-02 0. -1.
          2   -1    0    0    0  501  0.00000000000E+00 -0.00000000000E+00 -0.84230360039E+02  0.84230360078E+02  0.25500000000E-02 0. -1.
          2    1    1    2    0  502 -0.12907842051E+02  0.15983717765E+02 -0.44970761273E+02  0.49441490633E+02  0.25500000000E-02 0. -1.
         -2    1    1    2  502    0  0.12907842051E+02 -0.15983717765E+02 -0.34174130749E+02  0.39874338101E+02  0.25500000000E-02 0. -1.
<mgrwt>
<rscale>  0 0.41393276E+02</rscale>
<asrwt>0</asrwt>
<pdfrwt beam="2">  1        2 0.12958516E-01 0.41393276E+02</pdfrwt>
<pdfrwt beam="1">  1       -2 0.78237981E-03 0.41393276E+02</pdfrwt>
<totfact> 0.92128079E+05</totfact>
</mgrwt>
</event>
<event>
 4    1  0.4834411E-002  0.6371863E+02  0.7818608E-02  0.1382857E+00
          2   -1    0    0    0  501  0.00000000000E+00  0.00000000000E+00  0.18141256125E+03  0.18141256127E+03  0.25500000000E-02 0.  1.
         -2   -1    0    0  501    0 -0.00000000000E+00 -0.00000000000E+00 -0.55950694201E+01  0.55950700012E+01  0.25500000000E-02 0.  1.
          2    1    1    2    0  502 -0.25153320173E+02 -0.98949689743E+01  0.13740472439E+03  0.14003805989E+03  0.25500000000E-02 0.  1.
         -2    1    1    2  502    0  0.25153320173E+02  0.98949689743E+01  0.38412767449E+02  0.46969571388E+02  0.25500000000E-02 0.  1.
<mgrwt>
<rscale>  0 0.63718629E+02</rscale>
<asrwt>0</asrwt>
<pdfrwt beam="1">  1        2 0.27909624E-01 0.63718629E+02</pdfrwt>
<pdfrwt beam="2">  1       -2 0.86077998E-03 0.63718629E+02</pdfrwt>
<totfact> 0.38467111E+05</totfact>
</mgrwt>
</event>
<event>
 4    1  0.4834411E-002  0.6803199E+02  0.7818608E-02  0.1366916E+00
         -2   -1    0    0  501    0 -0.00000000000E+00  0.00000000000E+00  0.44098448202E+02  0.44098448276E+02  0.25500000000E-02 0. -1.
          2   -1    0    0    0  501  0.00000000000E+00 -0.00000000000E+00 -0.26238746817E+02  0.26238746941E+02  0.25500000000E-02 0. -1.
          2    1    1    2    0  502  0.29519986131E+02 -0.15829471420E+02  0.28057762733E+01  0.33613600426E+02  0.25500000000E-02 0. -1.
         -2    1    1    2  502    0 -0.29519986131E+02  0.15829471420E+02  0.15053925112E+02  0.36723594791E+02  0.25500000000E-02 0. -1.
<mgrwt>
<rscale>  0 0.68031993E+02</rscale>
<asrwt>0</asrwt>
<pdfrwt beam="2">  1        2 0.40367303E-02 0.68031993E+02</pdfrwt>
<pdfrwt beam="1">  1       -2 0.67843766E-02 0.68031993E+02</pdfrwt>
<totfact> 0.19928161E+05</totfact>
</mgrwt>
</event>
<event>
 4    1  0.4834411E-002  0.6463645E+02  0.7818608E-02  0.1379344E+00
          2   -1    0    0    0  501  0.00000000000E+00  0.00000000000E+00  0.65399411208E+02  0.65399411258E+02  0.25500000000E-02 0. -1.
         -2   -1    0    0  501    0 -0.00000000000E+00 -0.00000000000E+00 -0.15970599521E+02  0.15970599725E+02  0.25500000000E-02 0. -1.
          2    1    1    2    0  502 -0.55853992198E+01 -0.23784341656E+02  0.51347421742E+02  0.56863426897E+02  0.25500000000E-02 0.  1.
         -2    1    1    2  502    0  0.55853992198E+01  0.23784341656E+02 -0.19186100549E+01  0.24506584085E+02  0.25500000000E-02 0.  1.
<mgrwt>
<rscale>  0 0.64636455E+02</rscale>
<asrwt>0</asrwt>
<pdfrwt beam="1">  1        2 0.10061448E-01 0.64636455E+02</pdfrwt>
<pdfrwt beam="2">  1       -2 0.24570153E-02 0.64636455E+02</pdfrwt>
<totfact> 0.27748678E+05</totfact>
</mgrwt>
</event>
<event>
 4    1  0.4834411E-002  0.7700126E+02  0.7818608E-02  0.1337783E+00
         -2   -1    0    0  501    0 -0.00000000000E+00  0.00000000000E+00  0.11572034187E+01  0.11572062282E+01  0.25500000000E-02 0. -1.
          2   -1    0    0    0  501  0.00000000000E+00 -0.00000000000E+00 -0.12809299716E+04  0.12809299717E+04  0.25500000000E-02 0. -1.
          2    1    1    2    0  502  0.27633904556E+02  0.13104840438E+02 -0.10292767046E+04  0.10297309863E+04  0.25500000000E-02 0. -1.
         -2    1    1    2  502    0 -0.27633904556E+02 -0.13104840438E+02 -0.25049606365E+03  0.25235619159E+03  0.25500000000E-02 0. -1.
<mgrwt>
<rscale>  0 0.77001256E+02</rscale>
<asrwt>0</asrwt>
<pdfrwt beam="2">  1        2 0.19706502E+00 0.77001256E+02</pdfrwt>
<pdfrwt beam="1">  1       -2 0.17803254E-03 0.77001256E+02</pdfrwt>
<totfact> 0.38300329E+05</totfact>
</mgrwt>
</event>
<event>
 4    1  0.4834411E-002  0.5816729E+02  0.7818608E-02  0.1405688E+00
         -2   -1    0    0  501    0 -0.00000000000E+00  0.00000000000E+00  0.32914538294E+02  0.32914538393E+02  0.25500000000E-02 0. -1.
          2   -1    0    0    0  501  0.00000000000E+00 -0.00000000000E+00 -0.25698625736E+02  0.25698625863E+02  0.25500000000E-02 0. -1.
          2    1    1    2    0  502  0.29036121986E+02 -0.16487067502E+01  0.38188138380E+01  0.29332540967E+02  0.25500000000E-02 0.  1.
         -2    1    1    2  502    0 -0.29036121986E+02  0.16487067502E+01  0.33970987195E+01  0.29280623288E+02  0.25500000000E-02 0.  1.
<mgrwt>
<rscale>  0 0.58167290E+02</rscale>
<asrwt>0</asrwt>
<pdfrwt beam="2">  1        2 0.39536348E-02 0.58167290E+02</pdfrwt>
<pdfrwt beam="1">  1       -2 0.50637751E-02 0.58167290E+02</pdfrwt>
<totfact> 0.30562766E+05</totfact>
</mgrwt>
</event>
<event>
 4    1  0.4834411E-002  0.5318967E+02  0.7818608E-02  0.1428859E+00
          2   -1    0    0    0  501  0.00000000000E+00  0.00000000000E+00  0.50321718646E+02  0.50321718711E+02  0.25500000000E-02 0.  1.
         -2   -1    0    0  501    0 -0.00000000000E+00 -0.00000000000E+00 -0.14055267332E+02  0.14055267563E+02  0.25500000000E-02 0.  1.
          2    1    1    2    0  502 -0.11141631155E+02  0.23472943414E+02  0.11268389213E+02  0.28321222065E+02  0.25500000000E-02 0.  1.
         -2    1    1    2  502    0  0.11141631155E+02 -0.23472943414E+02  0.24998062102E+02  0.36055764209E+02  0.25500000000E-02 0.  1.
<mgrwt>
<rscale>  0 0.53189669E+02</rscale>
<asrwt>0</asrwt>
<pdfrwt beam="1">  1        2 0.77418029E-02 0.53189669E+02</pdfrwt>
<pdfrwt beam="2">  1       -2 0.21623488E-02 0.53189669E+02</pdfrwt>
<totfact> 0.43773676E+05</totfact>
</mgrwt>
</event>
<event>
 4    1  0.4834411E-002  0.6518396E+02  0.7818608E-02  0.1377281E+00
         -2   -1    0    0  501    0 -0.00000000000E+00  0.00000000000E+00  0.17820792596E+01  0.17820810840E+01  0.25500000000E-02 0.  1.
          2   -1    0    0    0  501  0.00000000000E+00 -0.00000000000E+00 -0.59606583640E+03  0.59606583640E+03  0.25500000000E-02 0.  1.
          2    1    1    2    0  502  0.17435558190E+02 -0.14249288544E+02 -0.51325106537E+03  0.51374477810E+03  0.25500000000E-02 0.  1.
         -2    1    1    2  502    0 -0.17435558190E+02  0.14249288544E+02 -0.81032691768E+02  0.84103139389E+02  0.25500000000E-02 0.  1.
<mgrwt>
<rscale>  0 0.65183958E+02</rscale>
<asrwt>0</asrwt>
<pdfrwt beam="2">  1        2 0.91702278E-01 0.65183958E+02</pdfrwt>
<pdfrwt beam="1">  1       -2 0.27416666E-03 0.65183958E+02</pdfrwt>
<totfact> 0.54335923E+05</totfact>
</mgrwt>
</event>
<event>
 4    1  0.4834411E-002  0.9308110E+02  0.7818608E-02  0.1295557E+00
         -2   -1    0    0  501    0 -0.00000000000E+00  0.00000000000E+00  0.10447315516E+03  0.10447315519E+03  0.25500000000E-02 0. -1.
          2   -1    0    0    0  501  0.00000000000E+00 -0.00000000000E+00 -0.20732815317E+02  0.20732815473E+02  0.25500000000E-02 0. -1.
          2    1    1    2    0  502 -0.19804670857E+02  0.34324749642E+02  0.90421831073E+01  0.40646949548E+02  0.25500000000E-02 0.  1.
         -2    1    1    2  502    0  0.19804670857E+02 -0.34324749642E+02  0.74698156732E+02  0.84559021112E+02  0.25500000000E-02 0.  1.
<mgrwt>
<rscale>  0 0.93081097E+02</rscale>
<asrwt>0</asrwt>
<pdfrwt beam="2">  1        2 0.31896639E-02 0.93081097E+02</pdfrwt>
<pdfrwt beam="1">  1       -2 0.16072793E-01 0.93081097E+02</pdfrwt>
<totfact> 0.74801669E+04</totfact>
</mgrwt>
</event>
<event>
 4    1  0.4834411E-002  0.5459311E+02  0.7818608E-02  0.1422033E+00
         -2   -1    0    0  501    0 -0.00000000000E+00  0.00000000000E+00  0.75381573987E+00  0.75382005291E+00  0.25500000000E-02 0. -1.
          2   -1    0    0    0  501  0.00000000000E+00 -0.00000000000E+00 -0.98843758692E+03  0.98843758692E+03  0.25500000000E-02 0. -1.
          2    1    1    2    0  502 -0.26736926343E+01 -0.26928997211E+02 -0.55862308231E+03  0.55927816658E+03  0.25500000000E-02 0.  1.
         -2    1    1    2  502    0  0.26736926343E+01  0.26928997211E+02 -0.42906068887E+03  0.42991324039E+03  0.25500000000E-02 0.  1.
<mgrwt>
<rscale>  0 0.54593111E+02</rscale>
<asrwt>0</asrwt>
<pdfrwt beam="2">  1        2 0.15206629E+00 0.54593111E+02</pdfrwt>
<pdfrwt beam="1">  1       -2 0.11597277E-03 0.54593111E+02</pdfrwt>
<totfact> 0.93057148E+05</totfact>
</mgrwt>
</event>
<event>
 4    1  0.4834411E-002  0.4176001E+02  0.7818608E-02  0.1495645E+00
          2   -1    0    0    0  501  0.00000000000E+00  0.00000000000E+00  0.54437627314E+03  0.54437627314E+03  0.25500000000E-02 0. -1.
         -2   -1    0    0  501    0 -0.00000000000E+00 -0.00000000000E+00 -0.80086782923E+00  0.80087188888E+00  0.25500000000E-02 0. -1.
          2    1    1    2    0  502 -0.67616052467E+01  0.19660863467E+02  0.29691880312E+03  0.29764583738E+03  0.25500000000E-02 0.  1.
         -2    1    1    2  502    0  0.67616052467E+01 -0.19660863467E+02  0.24665660219E+03  0.24753130766E+03  0.25500000000E-02 0.  1.
<mgrwt>
<rscale>  0 0.41760007E+02</rscale>
<asrwt>0</asrwt>
<pdfrwt beam="1">  1        2 0.83750318E-01 0.41760007E+02</pdfrwt>
<pdfrwt beam="2">  1       -2 0.12321057E-03 0.41760007E+02</pdfrwt>
<totfact> 0.16004804E+06</totfact>
</mgrwt>
</event>
<event>
 4    1  0.4834411E-002  0.7786321E+02  0.7818608E-02  0.1335227E+00
          2   -1    0    0    0  501  0.00000000000E+00  0.00000000000E+00  0.24446142591E+03  0.24446142592E+03  0.25500000000E-02 0.  1.
         -2   -1    0    0  501    0 -0.00000000000E+00 -0.00000000000E+00 -0.62000368743E+01  0.62000373987E+01  0.25500000000E-02 0.  1.
          2    1    1    2    0  502 -0.20290557245E+02 -0.15936887049E+02  0.21298610519E+03  0.21454317070E+03  0.25500000000E-02 0. -1.
         -2    1    1    2  502    0  0.20290557245E+02  0.15936887049E+02  0.25275283844E+02  0.36118292623E+02  0.25500000000E-02 0. -1.
<mgrwt>
<rscale>  0 0.77863211E+02</rscale>
<asrwt>0</asrwt>
<pdfrwt beam="1">  1        2 0.37609456E-01 0.77863211E+02</pdfrwt>
<pdfrwt beam="2">  1       -2 0.95385171E-03 0.77863211E+02</pdfrwt>
<totfact> 0.25311902E+05</totfact>
</mgrwt>
</event>
<event>
 4    1  0.4834411E-002  0.5018134E+02  0.7818608E-02  0.1444366E+00
         -2   -1    0    0  501    0 -0.00000000000E+00  0.00000000000E+00  0.12580250268E+01  0.12580276112E+01  0.25500000000E-02 0. -1.
          2   -1    0    0    0  501  0.00000000000E+00 -0.00000000000E+00 -0.50042019236E+03  0.50042019236E+03  0.25500000000E-02 0. -1.
          2    1    1    2    0  502 -0.20794362629E+02 -0.14035014269E+02 -0.25351228340E+03  0.25475059369E+03  0.25500000000E-02 0.  1.
         -2    1    1    2  502    0  0.20794362629E+02  0.14035014269E+02 -0.24564988393E+03  0.24692762629E+03  0.25500000000E-02 0.  1.
<mgrwt>
<rscale>  0 0.50181342E+02</rscale>
<asrwt>0</asrwt>
<pdfrwt beam="2">  1        2 0.76987563E-01 0.50181342E+02</pdfrwt>
<pdfrwt beam="1">  1       -2 0.19354291E-03 0.50181342E+02</pdfrwt>
<totfact> 0.99569260E+05</totfact>
</mgrwt>
</event>
<event>
 4    1  0.4834411E-002  0.2089925E+03  0.7818608E-02  0.1142366E+00
          2   -1    0    0    0  501  0.00000000000E+00  0.00000000000E+00  0.14366686014E+04  0.14366686014E+04  0.25500000000E-02 0.  1.
         -2   -1    0    0  501    0 -0.00000000000E+00 -0.00000000000E+00 -0.76005479496E+01  0.76005483774E+01  0.25500000000E-02 0.  1.
          2    1    1    2    0  502 -0.54107991991E+02 -0.87899809123E+02  0.60194857227E+03  0.61073409509E+03  0.25500000000E-02 0.  1.
         -2    1    1    2  502    0  0.54107991991E+02  0.87899809123E+02  0.82711948114E+03  0.83353505465E+03  0.25500000000E-02 0.  1.
<mgrwt>
<rscale>  0 0.20899253E+03</rscale>
<asrwt>0</asrwt>
<pdfrwt beam="1">  1        2 0.22102608E+00 0.20899253E+03</pdfrwt>
<pdfrwt beam="2">  1       -2 0.11693143E-02 0.20899253E+03</pdfrwt>
<totfact> 0.24710495E+04</totfact>
</mgrwt>
</event>
<event>
 4    1  0.4834411E-002  0.4776695E+02  0.7818608E-02  0.1457772E+00
         -2   -1    0    0  501    0 -0.00000000000E+00  0.00000000000E+00  0.57348326916E+01  0.57348332585E+01  0.25500000000E-02 0.  1.
          2   -1    0    0    0  501  0.00000000000E+00 -0.00000000000E+00 -0.99465912430E+02  0.99465912462E+02  0.25500000000E-02 0.  1.
          2    1    1    2    0  502 -0.14990088410E+02  0.18577543640E+02 -0.45170264401E+02  0.51089927292E+02  0.25500000000E-02 0. -1.
         -2    1    1    2  502    0  0.14990088410E+02 -0.18577543640E+02 -0.48560815337E+02  0.54110818428E+02  0.25500000000E-02 0. -1.
<mgrwt>
<rscale>  0 0.47766951E+02</rscale>
<asrwt>0</asrwt>
<pdfrwt beam="2">  1        2 0.15302447E-01 0.47766951E+02</pdfrwt>
<pdfrwt beam="1">  1       -2 0.88228207E-03 0.47766951E+02</pdfrwt>
<totfact> 0.67100219E+05</totfact>
</mgrwt>
</event>
<event>
 4    1  0.4834411E-002  0.4838508E+02  0.7818608E-02  0.1454252E+00
          2   -1    0    0    0  501  0.00000000000E+00  0.00000000000E+00  0.94684903264E+03  0.94684903264E+03  0.25500000000E-02 0.  1.
         -2   -1    0    0  501    0 -0.00000000000E+00 -0.00000000000E+00 -0.61813065882E+00  0.61813591861E+00  0.25500000000E-02 0.  1.
          2    1    1    2    0  502  0.10841172819E+02 -0.21603542926E+02  0.45319575708E+03  0.45383988183E+03  0.25500000000E-02 0.  1.
         -2    1    1    2  502    0 -0.10841172819E+02  0.21603542926E+02  0.49303514490E+03  0.49362728673E+03  0.25500000000E-02 0.  1.
<mgrwt>
<rscale>  0 0.48385077E+02</rscale>
<asrwt>0</asrwt>
<pdfrwt beam="1">  1        2 0.14566886E+00 0.48385077E+02</pdfrwt>
<pdfrwt beam="2">  1       -2 0.95097571E-04 0.48385077E+02</pdfrwt>
<totfact> 0.12511198E+06</totfact>
</mgrwt>
</event>
<event>
 4    1  0.4834411E-002  0.6242213E+02  0.7818608E-02  0.1387939E+00
          2   -1    0    0    0  501  0.00000000000E+00  0.00000000000E+00  0.75667865391E+02  0.75667865434E+02  0.25500000000E-02 0. -1.
         -2   -1    0    0  501    0 -0.00000000000E+00 -0.00000000000E+00 -0.12873768753E+02  0.12873769006E+02  0.25500000000E-02 0. -1.
          2    1    1    2    0  502 -0.23632147785E+02  0.20251484004E+02  0.34732507114E+02  0.46636338517E+02  0.25500000000E-02 0.  1.
         -2    1    1    2  502    0  0.23632147785E+02 -0.20251484004E+02  0.28061589524E+02  0.41905295923E+02  0.25500000000E-02 0.  1.
<mgrwt>
<rscale>  0 0.62422131E+02</rscale>
<asrwt>0</asrwt>
<pdfrwt beam="1">  1        2 0.11641210E-01 0.62422131E+02</pdfrwt>
<pdfrwt beam="2">  1       -2 0.19805799E-02 0.62422131E+02</pdfrwt>
<totfact> 0.31501949E+05</totfact>
</mgrwt>
</event>
<event>
 4    1  0.4834411E-002  0.6302247E+02  0.7818608E-02  0.1385568E+00
         -2   -1    0    0  501    0 -0.00000000000E+00  0.00000000000E+00  0.17774058518E+01  0.17774076810E+01  0.25500000000E-02 0.  1.
          2   -1    0    0    0  501  0.00000000000E+00 -0.00000000000E+00 -0.55865535223E+03  0.55865535223E+03  0.25500000000E-02 0.  1.
          2    1    1    2    0  502  0.29377952877E+02 -0.10864508690E+01 -0.37932705129E+03  0.38046452704E+03  0.25500000000E-02 0.  1.
         -2    1    1    2  502    0 -0.29377952877E+02  0.10864508690E+01 -0.17755089508E+03  0.17996823287E+03  0.25500000000E-02 0.  1.
<mgrwt>
<rscale>  0 0.63022466E+02</rscale>
<asrwt>0</asrwt>
<pdfrwt beam="2">  1        2 0.85946837E-01 0.63022466E+02</pdfrwt>
<pdfrwt beam="1">  1       -2 0.27344764E-03 0.63022466E+02</pdfrwt>
<totfact> 0.58119423E+05</totfact>
</mgrwt>
</event>
<event>
 4    1  0.4834411E-002  0.4119118E+02  0.7818608E-02  0.1499624E+00
         -2   -1    0    0  501    0 -0.00000000000E+00  0.00000000000E+00  0.11991840171E+01  0.11991867283E+01  0.25500000000E-02 0. -1.
          2   -1    0    0    0  501  0.00000000000E+00 -0.00000000000E+00 -0.35372204895E+03  0.35372204896E+03  0.25500000000E-02 0. -1.
          2    1    1    2    0  502  0.95254170185E+01 -0.17646381235E+02 -0.13580089007E+03  0.13727348648E+03  0.25500000000E-02 0. -1.
         -2    1    1    2  502    0 -0.95254170185E+01  0.17646381235E+02 -0.21672197487E+03  0.21764774921E+03  0.25500000000E-02 0. -1.
<mgrwt>
<rscale>  0 0.41191179E+02</rscale>
<asrwt>0</asrwt>
<pdfrwt beam="2">  1        2 0.54418693E-01 0.41191179E+02</pdfrwt>
<pdfrwt beam="1">  1       -2 0.18449034E-03 0.41191179E+02</pdfrwt>
<totfact> 0.14412206E+06</totfact>
</mgrwt>
</event>
<event>
 4    1  0.4834411E-002  0.4850312E+02  0.7818608E-02  0.1453587E+00
         -2   -1    0    0  501    0 -0.00000000000E+00  0.00000000000E+00  0.13315473523E+01  0.13315497940E+01  0.25500000000E-02 0.  1.
          2   -1    0    0    0  501  0.00000000000E+00 -0.00000000000E+00 -0.44169494892E+03  0.44169494893E+03  0.25500000000E-02 0.  1.
          2    1    1    2    0  502 -0.20312352772E+02  0.34626870193E+01 -0.33699539369E+03  0.33762475805E+03  0.25500000000E-02 0.  1.
         -2    1    1    2  502    0  0.20312352772E+02 -0.34626870193E+01 -0.10336800788E+03  0.10540174067E+03  0.25500000000E-02 0.  1.
<mgrwt>
<rscale>  0 0.48503125E+02</rscale>
<asrwt>0</asrwt>
<pdfrwt beam="2">  1        2 0.67952952E-01 0.48503125E+02</pdfrwt>
<pdfrwt beam="1">  1       -2 0.20485398E-03 0.48503125E+02</pdfrwt>
<totfact> 0.10408783E+06</totfact>
</mgrwt>
</event>
<event>
 4    1  0.4834411E-002  0.5323874E+02  0.7818608E-02  0.1428616E+00
         -2   -1    0    0  501    0 -0.00000000000E+00  0.00000000000E+00  0.20940308749E+02  0.20940308905E+02  0.25500000000E-02 0. -1.
          2   -1    0    0    0  501  0.00000000000E+00 -0.00000000000E+00 -0.33838609674E+02  0.33838609770E+02  0.25500000000E-02 0. -1.
          2    1    1    2    0  502  0.15911715280E+02 -0.21080801998E+02 -0.98629705778E+01  0.28193280957E+02  0.25500000000E-02 0. -1.
         -2    1    1    2  502    0 -0.15911715280E+02  0.21080801998E+02 -0.30353303468E+01  0.26585637717E+02  0.25500000000E-02 0. -1.
<mgrwt>
<rscale>  0 0.53238743E+02</rscale>
<asrwt>0</asrwt>
<pdfrwt beam="2">  1        2 0.52059400E-02 0.53238743E+02</pdfrwt>
<pdfrwt beam="1">  1       -2 0.32215860E-02 0.53238743E+02</pdfrwt>
<totfact> 0.40618513E+05</totfact>
</mgrwt>
</event>
<event>
 4    1  0.4834411E-002  0.5515315E+02  0.7818608E-02  0.1419376E+00
          2   -1    0    0    0  501  0.00000000000E+00  0.00000000000E+00  0.55559216620E+01  0.55559222472E+01  0.25500000000E-02 0. -1.
         -2   -1    0    0  501    0 -0.00000000000E+00 -0.00000000000E+00 -0.13687513721E+03  0.13687513723E+03  0.25500000000E-02 0. -1.
          2    1    1    2    0  502  0.52256580232E+01 -0.21657724248E+02 -0.10762787793E+03  0.10990962031E+03  0.25500000000E-02 0.  1.
         -2    1    1    2  502    0 -0.52256580232E+01  0.21657724248E+02 -0.23691337615E+02  0.32521439173E+02  0.25500000000E-02 0.  1.
<mgrwt>
<rscale>  0 0.55153153E+02</rscale>
<asrwt>0</asrwt>
<pdfrwt beam="1">  1        2 0.85475733E-03 0.55153153E+02</pdfrwt>
<pdfrwt beam="2">  1       -2 0.21057711E-01 0.55153153E+02</pdfrwt>
<totfact> 0.25387927E+05</totfact>
</mgrwt>
</event>
<event>
 4    1  0.4834411E-002  0.5656998E+02  0.7818608E-02  0.1412817E+00
         -2   -1    0    0  501    0 -0.00000000000E+00  0.00000000000E+00  0.61692532219E+00  0.61693059226E+00  0.25500000000E-02 0.  1.
          2   -1    0    0    0  501  0.00000000000E+00 -0.00000000000E+00 -0.12968139143E+04  0.12968139143E+04  0.25500000000E-02 0.  1.
          2    1    1    2    0  502 -0.11336472607E+02  0.25907245572E+02 -0.63472971802E+03  0.63535935967E+03  0.25500000000E-02 0. -1.
         -2    1    1    2  502    0  0.11336472607E+02 -0.25907245572E+02 -0.66146727099E+03  0.66207148525E+03  0.25500000000E-02 0. -1.
<mgrwt>
<rscale>  0 0.56569984E+02</rscale>
<asrwt>0</asrwt>
<pdfrwt beam="2">  1        2 0.19950765E+00 0.56569984E+02</pdfrwt>
<pdfrwt beam="1">  1       -2 0.94913032E-04 0.56569984E+02</pdfrwt>
<totfact> 0.83815990E+05</totfact>
</mgrwt>
</event>
<event>
 4    1  0.4834411E-002  0.8644121E+02  0.7818608E-02  0.1311706E+00
          2   -1    0    0    0  501  0.00000000000E+00  0.00000000000E+00  0.24395387436E+03  0.24395387437E+03  0.25500000000E-02 0. -1.
         -2   -1    0    0  501    0 -0.00000000000E+00 -0.00000000000E+00 -0.76572704458E+01  0.76572708704E+01  0.25500000000E-02 0. -1.
          2    1    1    2    0  502 -0.37532034278E+02 -0.22042509177E+01  0.18020376701E+03  0.18408397532E+03  0.25500000000E-02 0.  1.
         -2    1    1    2  502    0  0.37532034278E+02  0.22042509177E+01  0.56092836901E+02  0.67527169919E+02  0.25500000000E-02 0.  1.
<mgrwt>
<rscale>  0 0.86441213E+02</rscale>
<asrwt>0</asrwt>
<pdfrwt beam="1">  1        2 0.37531367E-01 0.86441213E+02</pdfrwt>
<pdfrwt beam="2">  1       -2 0.11780416E-02 0.86441213E+02</pdfrwt>
<totfact> 0.19180421E+05</totfact>
</mgrwt>
</event>
<event>
 4    1  0.4834411E-002  0.6177927E+02  0.7818608E-02  0.1390513E+00
         -2   -1    0    0  501    0 -0.00000000000E+00  0.00000000000E+00  0.14345103079E+01  0.14345125743E+01  0.25500000000E-02 0.  1.
          2   -1    0    0    0  501  0.00000000000E+00 -0.00000000000E+00 -0.66515301830E+03  0.66515301830E+03  0.25500000000E-02 0.  1.
          2    1    1    2    0  502  0.75781547648E+01  0.19024882804E+02 -0.58138081205E+03  0.58174137142E+03  0.25500000000E-02 0.  1.
         -2    1    1    2  502    0 -0.75781547648E+01 -0.19024882804E+02 -0.82337695936E+02  0.84846159453E+02  0.25500000000E-02 0.  1.
<mgrwt>
<rscale>  0 0.61779272E+02</rscale>
<asrwt>0</asrwt>
<pdfrwt beam="2">  1        2 0.10233099E+00 0.61779272E+02</pdfrwt>
<pdfrwt beam="1">  1       -2 0.22069460E-03 0.61779272E+02</pdfrwt>
<totfact> 0.64076855E+05</totfact>
</mgrwt>
</event>
<event>
 4    1  0.4834411E-002  0.5446059E+02  0.7818608E-02  0.1422667E+00
          2   -1    0    0    0  501  0.00000000000E+00  0.00000000000E+00  0.14331615255E+04  0.14331615256E+04  0.25500000000E-02 0.  1.
         -2   -1    0    0  501    0 -0.00000000000E+00 -0.00000000000E+00 -0.51737671096E+00  0.51738299503E+00  0.25500000000E-02 0.  1.
          2    1    1    2    0  502 -0.17571924478E+02 -0.20798157122E+02  0.72662007915E+03  0.72713002640E+03  0.25500000000E-02 0.  1.
         -2    1    1    2  502    0  0.17571924478E+02  0.20798157122E+02  0.70602406969E+03  0.70654888214E+03  0.25500000000E-02 0.  1.
<mgrwt>
<rscale>  0 0.54460588E+02</rscale>
<asrwt>0</asrwt>
<pdfrwt beam="1">  1        2 0.22048353E+00 0.54460588E+02</pdfrwt>
<pdfrwt beam="2">  1       -2 0.79597934E-04 0.54460588E+02</pdfrwt>
<totfact> 0.89964321E+05</totfact>
</mgrwt>
</event>
<event>
 4    1  0.4834411E-002  0.5771007E+02  0.7818608E-02  0.1407701E+00
         -2   -1    0    0  501    0 -0.00000000000E+00  0.00000000000E+00  0.12272852549E+01  0.12272879040E+01  0.25500000000E-02 0. -1.
          2   -1    0    0    0  501  0.00000000000E+00 -0.00000000000E+00 -0.67841784507E+03  0.67841784507E+03  0.25500000000E-02 0. -1.
          2    1    1    2    0  502 -0.23077069041E+02 -0.13764251624E+02 -0.46245287218E+03  0.46323284074E+03  0.25500000000E-02 0.  1.
         -2    1    1    2  502    0  0.23077069041E+02  0.13764251624E+02 -0.21473768763E+03  0.21641229224E+03  0.25500000000E-02 0.  1.
<mgrwt>
<rscale>  0 0.57710073E+02</rscale>
<asrwt>0</asrwt>
<pdfrwt beam="2">  1        2 0.10437168E+00 0.57710073E+02</pdfrwt>
<pdfrwt beam="1">  1       -2 0.18881386E-03 0.57710073E+02</pdfrwt>
<totfact> 0.76446298E+05</totfact>
</mgrwt>
</event>
<event>
 4    1  0.4834411E-002  0.4744328E+02  0.7818608E-02  0.1459641E+00
         -2   -1    0    0  501    0 -0.00000000000E+00  0.00000000000E+00  0.21526387994E+01  0.21526403097E+01  0.25500000000E-02 0.  1.
          2   -1    0    0    0  501  0.00000000000E+00 -0.00000000000E+00 -0.26140752087E+03  0.26140752088E+03  0.25500000000E-02 0.  1.
          2    1    1    2    0  502  0.20617664338E+02 -0.24497250994E+01 -0.19336236129E+03  0.19447388515E+03  0.25500000000E-02 0.  1.
         -2    1    1    2  502    0 -0.20617664338E+02  0.24497250994E+01 -0.65892520777E+02  0.69086276037E+02  0.25500000000E-02 0.  1.
<mgrwt>
<rscale>  0 0.47443279E+02</rscale>
<asrwt>0</asrwt>
<pdfrwt beam="2">  1        2 0.40216517E-01 0.47443279E+02</pdfrwt>
<pdfrwt beam="1">  1       -2 0.33117552E-03 0.47443279E+02</pdfrwt>
<totfact> 0.91866548E+05</totfact>
</mgrwt>
</event>
<event>
 4    1  0.4834411E-002  0.5902716E+02  0.7818608E-02  0.1401960E+00
          2   -1    0    0    0  501  0.00000000000E+00  0.00000000000E+00  0.17648069839E+04  0.17648069839E+04  0.25500000000E-02 0. -1.
         -2   -1    0    0  501    0 -0.00000000000E+00 -0.00000000000E+00 -0.49356414267E+00  0.49357072991E+00  0.25500000000E-02 0. -1.
          2    1    1    2    0  502  0.10193508119E+02  0.27395181566E+02  0.10041802423E+04  0.10046055756E+04  0.25500000000E-02 0. -1.
         -2    1    1    2  502    0 -0.10193508119E+02 -0.27395181566E+02  0.76013317745E+03  0.76069497898E+03  0.25500000000E-02 0. -1.
<mgrwt>
<rscale>  0 0.59027155E+02</rscale>
<asrwt>0</asrwt>
<pdfrwt beam="1">  1        2 0.27150468E+00 0.59027155E+02</pdfrwt>
<pdfrwt beam="2">  1       -2 0.75934594E-04 0.59027155E+02</pdfrwt>
<totfact> 0.66780304E+05</totfact>
</mgrwt>
</event>
<event>
 4    1  0.4834411E-002  0.9900807E+02  0.7818608E-02  0.1282396E+00
          2   -1    0    0    0  501  0.00000000000E+00  0.00000000000E+00  0.13395612044E+04  0.13395612044E+04  0.25500000000E-02 0. -1.
         -2   -1    0    0  501    0 -0.00000000000E+00 -0.00000000000E+00 -0.18294410864E+01  0.18294428636E+01  0.25500000000E-02 0. -1.
          2    1    1    2    0  502 -0.37422503558E+02  0.29452527117E+02  0.48571097481E+03  0.48804000470E+03  0.25500000000E-02 0.  1.
         -2    1    1    2  502    0  0.37422503558E+02 -0.29452527117E+02  0.85202078847E+03  0.85335064254E+03  0.25500000000E-02 0.  1.
<mgrwt>
<rscale>  0 0.99008070E+02</rscale>
<asrwt>0</asrwt>
<pdfrwt beam="1">  1        2 0.20608667E+00 0.99008070E+02</pdfrwt>
<pdfrwt beam="2">  1       -2 0.28145216E-03 0.99008070E+02</pdfrwt>
<totfact> 0.19634913E+05</totfact>
</mgrwt>
</event>
<event>
 4    1  0.4834411E-002  0.6750319E+02  0.7818608E-02  0.1368795E+00
         -2   -1    0    0  501    0 -0.00000000000E+00  0.00000000000E+00  0.24697764356E+02  0.24697764487E+02  0.25500000000E-02 0.  1.
          2   -1    0    0    0  501  0.00000000000E+00 -0.00000000000E+00 -0.46124423724E+02  0.46124423794E+02  0.25500000000E-02 0.  1.
          2    1    1    2    0  502 -0.14002012626E+02 -0.28594624244E+02 -0.22465007097E+02  0.38966465629E+02  0.25500000000E-02 0.  1.
         -2    1    1    2  502    0  0.14002012626E+02  0.28594624244E+02  0.10383477290E+01  0.31855722653E+02  0.25500000000E-02 0.  1.
<mgrwt>
<rscale>  0 0.67503190E+02</rscale>
<asrwt>0</asrwt>
<pdfrwt beam="2">  1        2 0.70960652E-02 0.67503190E+02</pdfrwt>
<pdfrwt beam="1">  1       -2 0.37996561E-02 0.67503190E+02</pdfrwt>
<totfact> 0.22859421E+05</totfact>
</mgrwt>
</event>
<event>
 4    1  0.4834411E-002  0.4604132E+02  0.7818608E-02  0.1467944E+00
         -2   -1    0    0  501    0 -0.00000000000E+00  0.00000000000E+00  0.17773346324E+02  0.17773346507E+02  0.25500000000E-02 0. -1.
          2   -1    0    0    0  501  0.00000000000E+00 -0.00000000000E+00 -0.29817159695E+02  0.29817159804E+02  0.25500000000E-02 0. -1.
          2    1    1    2    0  502 -0.15073405181E+02  0.17307779501E+02 -0.41775096383E+01  0.23328488341E+02  0.25500000000E-02 0.  1.
         -2    1    1    2  502    0  0.15073405181E+02 -0.17307779501E+02 -0.78663037327E+01  0.24262017969E+02  0.25500000000E-02 0.  1.
<mgrwt>
<rscale>  0 0.46041317E+02</rscale>
<asrwt>0</asrwt>
<pdfrwt beam="2">  1        2 0.45872554E-02 0.46041317E+02</pdfrwt>
<pdfrwt beam="1">  1       -2 0.27343610E-02 0.46041317E+02</pdfrwt>
<totfact> 0.58111239E+05</totfact>
</mgrwt>
</event>
<event>
 4    1  0.4834411E-002  0.6172969E+02  0.7818608E-02  0.1390713E+00
          2   -1    0    0    0  501  0.00000000000E+00  0.00000000000E+00  0.34701732570E+03  0.34701732571E+03  0.25500000000E-02 0. -1.
         -2   -1    0    0  501    0 -0.00000000000E+00 -0.00000000000E+00 -0.27452187197E+01  0.27452199040E+01  0.25500000000E-02 0. -1.
          2    1    1    2    0  502 -0.12479543397E+02  0.23922597438E+02  0.87219419762E+02  0.91297627908E+02  0.25500000000E-02 0. -1.
         -2    1    1    2  502    0  0.12479543397E+02 -0.23922597438E+02  0.25705268722E+03  0.25846491771E+03  0.25500000000E-02 0. -1.
<mgrwt>
<rscale>  0 0.61729690E+02</rscale>
<asrwt>0</asrwt>
<pdfrwt beam="1">  1        2 0.53387290E-01 0.61729690E+02</pdfrwt>
<pdfrwt beam="2">  1       -2 0.42234136E-03 0.61729690E+02</pdfrwt>
<totfact> 0.52358575E+05</totfact>
</mgrwt>
</event>
<event>
 4    1  0.4834411E-002  0.7156580E+02  0.7818608E-02  0.1354848E+00
          2   -1    0    0    0  501  0.00000000000E+00  0.00000000000E+00  0.14658507962E+01  0.14658530142E+01  0.25500000000E-02 0. -1.
         -2   -1    0    0  501    0 -0.00000000000E+00 -0.00000000000E+00 -0.87349601026E+03  0.87349601027E+03  0.25500000000E-02 0. -1.
          2    1    1    2    0  502 -0.15166798384E+02 -0.30696909273E+02 -0.56312044127E+03  0.56416040573E+03  0.25500000000E-02 0.  1.
         -2    1    1    2  502    0  0.15166798384E+02  0.30696909273E+02 -0.30890971820E+03  0.31080145755E+03  0.25500000000E-02 0.  1.
<mgrwt>
<rscale>  0 0.71565796E+02</rscale>
<asrwt>0</asrwt>
<pdfrwt beam="1">  1        2 0.22551638E-03 0.71565796E+02</pdfrwt>
<pdfrwt beam="2">  1       -2 0.13438359E+00 0.71565796E+02</pdfrwt>
<totfact> 0.40548047E+04</totfact>
</mgrwt>
</event>
<event>
 4    1  0.4834411E-002  0.4742849E+02  0.7818608E-02  0.1459727E+00
         -2   -1    0    0  501    0 -0.00000000000E+00  0.00000000000E+00  0.49201494074E+02  0.49201494140E+02  0.25500000000E-02 0. -1.
          2   -1    0    0    0  501  0.00000000000E+00 -0.00000000000E+00 -0.11429842829E+02  0.11429843114E+02  0.25500000000E-02 0. -1.
          2    1    1    2    0  502  0.22455257586E+02  0.48129604522E+01  0.26444698517E+02  0.35024638010E+02  0.25500000000E-02 0. -1.
         -2    1    1    2  502    0 -0.22455257586E+02 -0.48129604522E+01  0.11326952727E+02  0.25606699244E+02  0.25500000000E-02 0. -1.
<mgrwt>
<rscale>  0 0.47428487E+02</rscale>
<asrwt>0</asrwt>
<pdfrwt beam="2">  1        2 0.17584374E-02 0.47428487E+02</pdfrwt>
<pdfrwt beam="1">  1       -2 0.75694607E-02 0.47428487E+02</pdfrwt>
<totfact> 0.46394561E+05</totfact>
</mgrwt>
</event>
<event>
 4    1  0.4834411E-002  0.4510822E+02  0.7818608E-02  0.1473667E+00
          2   -1    0    0    0  501  0.00000000000E+00  0.00000000000E+00  0.12355164602E+04  0.12355164602E+04  0.25500000000E-02 0. -1.
         -2   -1    0    0  501    0 -0.00000000000E+00 -0.00000000000E+00 -0.41171684662E+00  0.41172474335E+00  0.25500000000E-02 0. -1.
          2    1    1    2    0  502 -0.71478627537E+01  0.20873014712E+02  0.74581194355E+03  0.74613821095E+03  0.25500000000E-02 0. -1.
         -2    1    1    2  502    0  0.71478627537E+01 -0.20873014712E+02  0.48929279980E+03  0.48978997400E+03  0.25500000000E-02 0. -1.
<mgrwt>
<rscale>  0 0.45108218E+02</rscale>
<asrwt>0</asrwt>
<pdfrwt beam="1">  1        2 0.19007860E+00 0.45108218E+02</pdfrwt>
<pdfrwt beam="2">  1       -2 0.63341946E-04 0.45108218E+02</pdfrwt>
<totfact> 0.14787936E+06</totfact>
</mgrwt>
</event>
<event>
 4    1  0.4834411E-002  0.8069330E+02  0.7818608E-02  0.1327095E+00
         -2   -1    0    0  501    0 -0.00000000000E+00  0.00000000000E+00  0.23278893377E+01  0.23278907343E+01  0.25500000000E-02 0.  1.
          2   -1    0    0    0  501  0.00000000000E+00 -0.00000000000E+00 -0.69928218410E+03  0.69928218411E+03  0.25500000000E-02 0.  1.
          2    1    1    2    0  502 -0.89350256173E+01  0.36528812242E+02 -0.47557061862E+03  0.47705513529E+03  0.25500000000E-02 0.  1.
         -2    1    1    2  502    0  0.89350256173E+01 -0.36528812242E+02 -0.22138367615E+03  0.22455493956E+03  0.25500000000E-02 0.  1.
<mgrwt>
<rscale>  0 0.80693297E+02</rscale>
<asrwt>0</asrwt>
<pdfrwt beam="2">  1        2 0.10758171E+00 0.80693297E+02</pdfrwt>
<pdfrwt beam="1">  1       -2 0.35813749E-03 0.80693297E+02</pdfrwt>
<totfact> 0.32654674E+05</totfact>
</mgrwt>
</event>
<event>
 4    1  0.4834411E-002  0.4698198E+02  0.7818608E-02  0.1462335E+00
          2   -1    0    0    0  501  0.00000000000E+00  0.00000000000E+00  0.29874288641E+02  0.29874288750E+02  0.25500000000E-02 0.  1.
         -2   -1    0    0  501    0 -0.00000000000E+00 -0.00000000000E+00 -0.18471623801E+02  0.18471623977E+02  0.25500000000E-02 0.  1.
          2    1    1    2    0  502 -0.12509190914E+02  0.18316517537E+02 -0.22596669904E+01  0.22295308328E+02  0.25500000000E-02 0. -1.
         -2    1    1    2  502    0  0.12509190914E+02 -0.18316517537E+02  0.13662331830E+02  0.26050604399E+02  0.25500000000E-02 0. -1.
<mgrwt>
<rscale>  0 0.46981981E+02</rscale>
<asrwt>0</asrwt>
<pdfrwt beam="1">  1        2 0.45960444E-02 0.46981981E+02</pdfrwt>
<pdfrwt beam="2">  1       -2 0.28417883E-02 0.46981981E+02</pdfrwt>
<totfact> 0.55166288E+05</totfact>
</mgrwt>
</event>
<event>
 4    1  0.4834411E-002  0.9298982E+02  0.7818608E-02  0.1295769E+00
         -2   -1    0    0  501    0 -0.00000000000E+00  0.00000000000E+00  0.50025157184E+01  0.50025163684E+01  0.25500000000E-02 0. -1.
          2   -1    0    0    0  501  0.00000000000E+00 -0.00000000000E+00 -0.43213784209E+03  0.43213784210E+03  0.25500000000E-02 0. -1.
          2    1    1    2    0  502 -0.46234166183E+02 -0.28957898559E+01 -0.19488604141E+03  0.20031613231E+03  0.25500000000E-02 0. -1.
         -2    1    1    2  502    0  0.46234166183E+02  0.28957898559E+01 -0.23224928496E+03  0.23682422615E+03  0.25500000000E-02 0. -1.
<mgrwt>
<rscale>  0 0.92989816E+02</rscale>
<asrwt>0</asrwt>
<pdfrwt beam="2">  1        2 0.66482716E-01 0.92989816E+02</pdfrwt>
<pdfrwt beam="1">  1       -2 0.76961819E-03 0.92989816E+02</pdfrwt>
<totfact> 0.19469596E+05</totfact>
</mgrwt>
</event>
<event>
 4    1  0.4834411E-002  0.5684241E+02  0.7818608E-02  0.1411582E+00
         -2   -1    0    0  501    0 -0.00000000000E+00  0.00000000000E+00  0.19851159556E+01  0.19851175934E+01  0.25500000000E-02 0.  1.
          2   -1    0    0    0  501  0.00000000000E+00 -0.00000000000E+00 -0.40691048008E+03  0.40691048009E+03  0.25500000000E-02 0.  1.
          2    1    1    2    0  502 -0.17451970905E+02  0.19107749614E+02 -0.28699388488E+03  0.28815823318E+03  0.25500000000E-02 0.  1.
         -2    1    1    2  502    0  0.17451970905E+02 -0.19107749614E+02 -0.11793147925E+03  0.12073736451E+03  0.25500000000E-02 0.  1.
<mgrwt>
<rscale>  0 0.56842408E+02</rscale>
<asrwt>0</asrwt>
<pdfrwt beam="2">  1        2 0.62601546E-01 0.56842408E+02</pdfrwt>
<pdfrwt beam="1">  1       -2 0.30540290E-03 0.56842408E+02</pdfrwt>
<totfact> 0.68184902E+05</totfact>
</mgrwt>
</event>
<event>
 4    1  0.4834411E-002  0.7473986E+02  0.7818608E-02  0.1344678E+00
         -2   -1    0    0  501    0 -0.00000000000E+00  0.00000000000E+00  0.23929031405E+03  0.23929031407E+03  0.25500000000E-02 0.  1.
          2   -1    0    0    0  501  0.00000000000E+00 -0.00000000000E+00 -0.58360564131E+01  0.58360569702E+01  0.25500000000E-02 0.  1.
          2    1    1    2    0  502  0.23878893029E+02  0.54494750829E+01  0.24158982636E+02  0.34402830689E+02  0.25500000000E-02 0. -1.
         -2    1    1    2  502    0 -0.23878893029E+02 -0.54494750829E+01  0.20929527500E+03  0.21072354035E+03  0.25500000000E-02 0. -1.
<mgrwt>
<rscale>  0 0.74739865E+02</rscale>
<asrwt>0</asrwt>
<pdfrwt beam="2">  1        2 0.89785494E-03 0.74739865E+02</pdfrwt>
<pdfrwt beam="1">  1       -2 0.36813892E-01 0.74739865E+02</pdfrwt>
<totfact> 0.95334860E+04</totfact>
</mgrwt>
</event>
<event>
 4    1  0.4834411E-002  0.4872322E+02  0.7818608E-02  0.1452352E+00
         -2   -1    0    0  501    0 -0.00000000000E+00  0.00000000000E+00  0.33087913267E+00  0.33088895862E+00  0.25500000000E-02 0.  1.
          2   -1    0    0    0  501  0.00000000000E+00 -0.00000000000E+00 -0.17936432563E+04  0.17936432563E+04  0.25500000000E-02 0.  1.
          2    1    1    2    0  502 -0.96487276245E+00 -0.20738517045E+02 -0.13659750207E+04  0.13661327806E+04  0.25500000000E-02 0.  1.
         -2    1    1    2  502    0  0.96487276245E+00  0.20738517045E+02 -0.42733735640E+03  0.42784136458E+03  0.25500000000E-02 0.  1.
<mgrwt>
<rscale>  0 0.48723216E+02</rscale>
<asrwt>0</asrwt>
<pdfrwt beam="2">  1        2 0.27593733E+00 0.48723216E+02</pdfrwt>
<pdfrwt beam="1">  1       -2 0.50906674E-04 0.48723216E+02</pdfrwt>
<totfact> 0.10682463E+06</totfact>
</mgrwt>
</event>
<event>
 4    1  0.4834411E-002  0.4870081E+02  0.7818608E-02  0.1452478E+00
          2   -1    0    0    0  501  0.00000000000E+00  0.00000000000E+00  0.39049419526E+03  0.39049419527E+03  0.25500000000E-02 0.  1.
         -2   -1    0    0  501    0 -0.00000000000E+00 -0.00000000000E+00 -0.15184396232E+01  0.15184417644E+01  0.25500000000E-02 0.  1.
          2    1    1    2    0  502  0.10671691079E+02  0.18834893365E+02  0.10474364586E+03  0.10695732585E+03  0.25500000000E-02 0.  1.
         -2    1    1    2  502    0 -0.10671691079E+02 -0.18834893365E+02  0.28423210978E+03  0.28505531118E+03  0.25500000000E-02 0.  1.
<mgrwt>
<rscale>  0 0.48700812E+02</rscale>
<asrwt>0</asrwt>
<pdfrwt beam="1">  1        2 0.60076028E-01 0.48700812E+02</pdfrwt>
<pdfrwt beam="2">  1       -2 0.23360627E-03 0.48700812E+02</pdfrwt>
<totfact> 0.98900066E+05</totfact>
</mgrwt>
</event>
<event>
 4    1  0.4834411E-002  0.4861088E+02  0.7818608E-02  0.1452981E+00
          2   -1    0    0    0  501  0.00000000000E+00  0.00000000000E+00  0.25317936237E+03  0.25317936238E+03  0.25500000000E-02 0. -1.
         -2   -1    0    0  501    0 -0.00000000000E+00 -0.00000000000E+00 -0.23333428034E+01  0.23333441968E+01  0.25500000000E-02 0. -1.
          2    1    1    2    0  502 -0.41280352255E+01 -0.20226064615E+02  0.57982571713E+02  0.61547648156E+02  0.25500000000E-02 0. -1.
         -2    1    1    2  502    0  0.41280352255E+01  0.20226064615E+02  0.19286344785E+03  0.19396505842E+03  0.25500000000E-02 0. -1.
<mgrwt>
<rscale>  0 0.48610880E+02</rscale>
<asrwt>0</asrwt>
<pdfrwt beam="1">  1        2 0.38950675E-01 0.48610880E+02</pdfrwt>
<pdfrwt beam="2">  1       -2 0.35897589E-03 0.48610880E+02</pdfrwt>
<totfact> 0.85538227E+05</totfact>
</mgrwt>
</event>
<event>
 4    1  0.4834411E-002  0.4649385E+02  0.7818608E-02  0.1465226E+00
         -2   -1    0    0  501    0 -0.00000000000E+00  0.00000000000E+00  0.65580149448E+02  0.65580149498E+02  0.25500000000E-02 0.  1.
          2   -1    0    0    0  501  0.00000000000E+00 -0.00000000000E+00 -0.82405948398E+01  0.82405952343E+01  0.25500000000E-02 0.  1.
          2    1    1    2    0  502 -0.19188622712E+02 -0.11793921746E+02  0.19532314841E+02  0.29812936140E+02  0.25500000000E-02 0.  1.
         -2    1    1    2  502    0  0.19188622712E+02  0.11793921746E+02  0.37807239767E+02  0.44007808592E+02  0.25500000000E-02 0.  1.
<mgrwt>
<rscale>  0 0.46493847E+02</rscale>
<asrwt>0</asrwt>
<pdfrwt beam="2">  1        2 0.12677839E-02 0.46493847E+02</pdfrwt>
<pdfrwt beam="1">  1       -2 0.10089254E-01 0.46493847E+02</pdfrwt>
<totfact> 0.46207660E+05</totfact>
</mgrwt>
</event>
<event>
 4    1  0.4834411E-002  0.9709404E+02  0.7818608E-02  0.1286528E+00
         -2   -1    0    0  501    0 -0.00000000000E+00  0.00000000000E+00  0.87110383704E+01  0.87110387436E+01  0.25500000000E-02 0.  1.
          2   -1    0    0    0  501  0.00000000000E+00 -0.00000000000E+00 -0.27055477392E+03  0.27055477393E+03  0.25500000000E-02 0.  1.
          2    1    1    2    0  502  0.44371130897E+02  0.25312102433E+01 -0.74735056096E+02  0.86951324881E+02  0.25500000000E-02 0. -1.
         -2    1    1    2  502    0 -0.44371130897E+02 -0.25312102433E+01 -0.18710867946E+03  0.19231448780E+03  0.25500000000E-02 0. -1.
<mgrwt>
<rscale>  0 0.97094038E+02</rscale>
<asrwt>0</asrwt>
<pdfrwt beam="2">  1        2 0.41623805E-01 0.97094038E+02</pdfrwt>
<pdfrwt beam="1">  1       -2 0.13401600E-02 0.97094038E+02</pdfrwt>
<totfact> 0.14601782E+05</totfact>
</mgrwt>
</event>
<event>
 4    1  0.4834411E-002  0.5039362E+02  0.7818608E-02  0.1443230E+00
         -2   -1    0    0  501    0 -0.00000000000E+00  0.00000000000E+00  0.82184302153E+01  0.82184306109E+01  0.25500000000E-02 0. -1.
          2   -1    0    0    0  501  0.00000000000E+00 -0.00000000000E+00 -0.77250681900E+02  0.77250681942E+02  0.25500000000E-02 0. -1.
          2    1    1    2    0  502  0.18998285194E+02  0.12208410493E+02 -0.15561576432E+02  0.27425221870E+02  0.25500000000E-02 0.  1.
         -2    1    1    2  502    0 -0.18998285194E+02 -0.12208410493E+02 -0.53470675253E+02  0.58043890682E+02  0.25500000000E-02 0.  1.
<mgrwt>
<rscale>  0 0.50393625E+02</rscale>
<asrwt>0</asrwt>
<pdfrwt beam="2">  1        2 0.11884720E-01 0.50393625E+02</pdfrwt>
<pdfrwt beam="1">  1       -2 0.12643740E-02 0.50393625E+02</pdfrwt>
<totfact> 0.55085989E+05</totfact>
</mgrwt>
</event>
<event>
 4    1  0.4834411E-002  0.6116524E+02  0.7818608E-02  0.1393006E+00
         -2   -1    0    0  501    0 -0.00000000000E+00  0.00000000000E+00  0.36741586366E+03  0.36741586367E+03  0.25500000000E-02 0.  1.
          2   -1    0    0    0  501  0.00000000000E+00 -0.00000000000E+00 -0.25456074340E+01  0.25456087112E+01  0.25500000000E-02 0.  1.
          2    1    1    2    0  502 -0.17110655619E+02 -0.25346703831E+02  0.18399905735E+03  0.18652314345E+03  0.25500000000E-02 0.  1.
         -2    1    1    2  502    0  0.17110655619E+02  0.25346703831E+02  0.18087119888E+03  0.18343832894E+03  0.25500000000E-02 0.  1.
<mgrwt>
<rscale>  0 0.61165245E+02</rscale>
<asrwt>0</asrwt>
<pdfrwt beam="2">  1        2 0.39163208E-03 0.61165245E+02</pdfrwt>
<pdfrwt beam="1">  1       -2 0.56525508E-01 0.61165245E+02</pdfrwt>
<totfact> 0.12483882E+05</totfact>
</mgrwt>
</event>
<event>
 4    1  0.4834411E-002  0.5391674E+02  0.7818608E-02  0.1425292E+00
         -2   -1    0    0  501    0 -0.00000000000E+00  0.00000000000E+00  0.77086805131E+00  0.77087226894E+00  0.25500000000E-02 0.  1.
          2   -1    0    0    0  501  0.00000000000E+00 -0.00000000000E+00 -0.94277068296E+03  0.94277068296E+03  0.25500000000E-02 0.  1.
          2    1    1    2    0  502 -0.24210473686E+01  0.20845797857E+02 -0.76712976988E+03  0.76741676591E+03  0.25500000000E-02 0. -1.
         -2    1    1    2  502    0  0.24210473686E+01 -0.20845797857E+02 -0.17487004503E+03  0.17612478932E+03  0.25500000000E-02 0. -1.
<mgrwt>
<rscale>  0 0.53916743E+02</rscale>
<asrwt>0</asrwt>
<pdfrwt beam="2">  1        2 0.14504072E+00 0.53916743E+02</pdfrwt>
<pdfrwt beam="1">  1       -2 0.11859616E-03 0.53916743E+02</pdfrwt>
<totfact> 0.95691755E+05</totfact>
</mgrwt>
</event>
<event>
 4    1  0.4834411E-002  0.6052445E+02  0.7818608E-02  0.1395644E+00
          2   -1    0    0    0  501  0.00000000000E+00  0.00000000000E+00  0.17097864574E+01  0.17097883589E+01  0.25500000000E-02 0. -1.
         -2   -1    0    0  501    0 -0.00000000000E+00 -0.00000000000E+00 -0.53562347825E+03  0.53562347825E+03  0.25500000000E-02 0. -1.
          2    1    1    2    0  502  0.27098938085E+02  0.12232500457E+02 -0.31703335443E+03  0.31842445625E+03  0.25500000000E-02 0. -1.
         -2    1    1    2  502    0 -0.27098938085E+02 -0.12232500457E+02 -0.21688033737E+03  0.21890881036E+03  0.25500000000E-02 0. -1.
<mgrwt>
<rscale>  0 0.60524451E+02</rscale>
<asrwt>0</asrwt>
<pdfrwt beam="1">  1        2 0.26304464E-03 0.60524451E+02</pdfrwt>
<pdfrwt beam="2">  1       -2 0.82403478E-01 0.60524451E+02</pdfrwt>
<totfact> 0.97742884E+04</totfact>
</mgrwt>
</event>
<event>
 4    1  0.4834411E-002  0.1091471E+03  0.7818608E-02  0.1262157E+00
         -2   -1    0    0  501    0 -0.00000000000E+00  0.00000000000E+00  0.38211731626E+01  0.38211740134E+01  0.25500000000E-02 0.  1.
          2   -1    0    0    0  501  0.00000000000E+00 -0.00000000000E+00 -0.77941351927E+03  0.77941351928E+03  0.25500000000E-02 0.  1.
          2    1    1    2    0  502 -0.48484358928E+02 -0.21693385986E+02 -0.47769293190E+03  0.48063694536E+03  0.25500000000E-02 0. -1.
         -2    1    1    2  502    0  0.48484358928E+02  0.21693385986E+02 -0.29789941421E+03  0.30259774793E+03  0.25500000000E-02 0. -1.
<mgrwt>
<rscale>  0 0.10914714E+03</rscale>
<asrwt>0</asrwt>
<pdfrwt beam="2">  1        2 0.11990965E+00 0.10914714E+03</pdfrwt>
<pdfrwt beam="1">  1       -2 0.58787348E-03 0.10914714E+03</pdfrwt>
<totfact> 0.15034302E+05</totfact>
</mgrwt>
</event>
<event>
 4    1  0.4834411E-002  0.8152746E+02  0.7818608E-02  0.1324772E+00
         -2   -1    0    0  501    0 -0.00000000000E+00  0.00000000000E+00  0.21141682885E+01  0.21141698263E+01  0.25500000000E-02 0.  1.
          2   -1    0    0    0  501  0.00000000000E+00 -0.00000000000E+00 -0.78597396579E+03  0.78597396580E+03  0.25500000000E-02 0.  1.
          2    1    1    2    0  502 -0.20367437824E+02  0.34307648596E+02 -0.47271030921E+03  0.47439106622E+03  0.25500000000E-02 0.  1.
         -2    1    1    2  502    0  0.20367437824E+02 -0.34307648596E+02 -0.31114948830E+03  0.31369706940E+03  0.25500000000E-02 0.  1.
<mgrwt>
<rscale>  0 0.81527464E+02</rscale>
<asrwt>0</asrwt>
<pdfrwt beam="2">  1        2 0.12091884E+00 0.81527464E+02</pdfrwt>
<pdfrwt beam="1">  1       -2 0.32525740E-03 0.81527464E+02</pdfrwt>
<totfact> 0.32572376E+05</totfact>
</mgrwt>
</event>
<event>
 4    1  0.4834411E-002  0.5548510E+02  0.7818608E-02  0.1417819E+00
         -2   -1    0    0  501    0 -0.00000000000E+00  0.00000000000E+00  0.14595584254E+03  0.14595584256E+03  0.25500000000E-02 0.  1.
          2   -1    0    0    0  501  0.00000000000E+00 -0.00000000000E+00 -0.52731636749E+01  0.52731642915E+01  0.25500000000E-02 0.  1.
          2    1    1    2    0  502  0.15361657417E+02 -0.12836317005E+02  0.12269072637E+03  0.12431317668E+03  0.25500000000E-02 0.  1.
         -2    1    1    2  502    0 -0.15361657417E+02  0.12836317005E+02  0.17991952499E+02  0.26915830176E+02  0.25500000000E-02 0.  1.
<mgrwt>
<rscale>  0 0.55485101E+02</rscale>
<asrwt>0</asrwt>
<pdfrwt beam="2">  1        2 0.81125606E-03 0.55485101E+02</pdfrwt>
<pdfrwt beam="1">  1       -2 0.22454743E-01 0.55485101E+02</pdfrwt>
<totfact> 0.24500421E+05</totfact>
</mgrwt>
</event>
<event>
 4    1  0.4834411E-002  0.7726355E+02  0.7818608E-02  0.1337001E+00
          2   -1    0    0    0  501  0.00000000000E+00  0.00000000000E+00  0.46863116654E+03  0.46863116655E+03  0.25500000000E-02 0.  1.
         -2   -1    0    0  501    0 -0.00000000000E+00 -0.00000000000E+00 -0.31846237072E+01  0.31846247281E+01  0.25500000000E-02 0.  1.
          2    1    1    2    0  502  0.26900808198E+02  0.19604942004E+02  0.35245062894E+03  0.35401900101E+03  0.25500000000E-02 0. -1.
         -2    1    1    2  502    0 -0.26900808198E+02 -0.19604942004E+02  0.11299591390E+03  0.11779679026E+03  0.25500000000E-02 0. -1.
<mgrwt>
<rscale>  0 0.77263553E+02</rscale>
<asrwt>0</asrwt>
<pdfrwt beam="1">  1        2 0.72097059E-01 0.77263553E+02</pdfrwt>
<pdfrwt beam="2">  1       -2 0.48994248E-03 0.77263553E+02</pdfrwt>
<totfact> 0.32578685E+05</totfact>
</mgrwt>
</event>
<event>
 4    1  0.4834411E-002  0.8828914E+02  0.7818608E-02  0.1307048E+00
          2   -1    0    0    0  501  0.00000000000E+00  0.00000000000E+00  0.42902984491E+04  0.42902984491E+04  0.25500000000E-02 0.  1.
         -2   -1    0    0  501    0 -0.00000000000E+00 -0.00000000000E+00 -0.45421727917E+00  0.45422443704E+00  0.25500000000E-02 0.  1.
          2    1    1    2    0  502  0.23891936726E+02 -0.36796957284E+02  0.23825220696E+04  0.23829259856E+04  0.25500000000E-02 0. -1.
         -2    1    1    2  502    0 -0.23891936726E+02  0.36796957284E+02  0.19073221623E+04  0.19078266880E+04  0.25500000000E-02 0. -1.
<mgrwt>
<rscale>  0 0.88289140E+02</rscale>
<asrwt>0</asrwt>
<pdfrwt beam="1">  1        2 0.66005823E+00 0.88289140E+02</pdfrwt>
<pdfrwt beam="2">  1       -2 0.69878829E-04 0.88289140E+02</pdfrwt>
<totfact> 0.24558185E+04</totfact>
</mgrwt>
</event>
<event>
 4    1  0.4834411E-002  0.7830247E+02  0.7818608E-02  0.1333939E+00
         -2   -1    0    0  501    0 -0.00000000000E+00  0.00000000000E+00  0.32980540014E+01  0.32980549872E+01  0.25500000000E-02 0.  1.
          2   -1    0    0    0  501  0.00000000000E+00 -0.00000000000E+00 -0.46476461550E+03  0.46476461551E+03  0.25500000000E-02 0.  1.
          2    1    1    2    0  502  0.10393001946E+02 -0.26138862766E+02 -0.39351401444E+03  0.39451810378E+03  0.25500000000E-02 0.  1.
         -2    1    1    2  502    0 -0.10393001946E+02  0.26138862766E+02 -0.67952547052E+02  0.73544566717E+02  0.25500000000E-02 0.  1.
<mgrwt>
<rscale>  0 0.78302466E+02</rscale>
<asrwt>0</asrwt>
<pdfrwt beam="2">  1        2 0.71502197E-01 0.78302466E+02</pdfrwt>
<pdfrwt beam="1">  1       -2 0.50739337E-03 0.78302466E+02</pdfrwt>
<totfact> 0.31378051E+05</totfact>
</mgrwt>
</event>
<event>
 4    1  0.4834411E-002  0.1007343E+03  0.7818608E-02  0.1278759E+00
         -2   -1    0    0  501    0 -0.00000000000E+00  0.00000000000E+00  0.19557949567E+02  0.19557949733E+02  0.25500000000E-02 0.  1.
          2   -1    0    0    0  501  0.00000000000E+00 -0.00000000000E+00 -0.12970940588E+03  0.12970940591E+03  0.25500000000E-02 0.  1.
          2    1    1    2    0  502 -0.89038896754E+01 -0.42572960331E+02 -0.17439540934E+02  0.46860151485E+02  0.25500000000E-02 0.  1.
         -2    1    1    2  502    0  0.89038896754E+01  0.42572960331E+02 -0.92711915383E+02  0.10240720416E+03  0.25500000000E-02 0.  1.
<mgrwt>
<rscale>  0 0.10073430E+03</rscale>
<asrwt>0</asrwt>
<pdfrwt beam="2">  1        2 0.19955293E-01 0.10073430E+03</pdfrwt>
<pdfrwt beam="1">  1       -2 0.30089154E-02 0.10073430E+03</pdfrwt>
<totfact> 0.10127850E+05</totfact>
</mgrwt>
</event>
<event>
 4    1  0.4834411E-002  0.1161692E+03  0.7818608E-02  0.1249554E+00
          2   -1    0    0    0  501  0.00000000000E+00  0.00000000000E+00  0.35944856038E+03  0.35944856039E+03  0.25500000000E-02 0.  1.
         -2   -1    0    0  501    0 -0.00000000000E+00 -0.00000000000E+00 -0.93860970671E+01  0.93860974135E+01  0.25500000000E-02 0.  1.
          2    1    1    2    0  502 -0.25300295936E+02 -0.83577373378E+01  0.33890020070E+03  0.33994602923E+03  0.25500000000E-02 0. -1.
         -2    1    1    2  502    0  0.25300295936E+02  0.83577373378E+01  0.11162262618E+02  0.28888628578E+02  0.25500000000E-02 0. -1.
<mgrwt>
<rscale>  0 0.11616917E+03</rscale>
<asrwt>0</asrwt>
<pdfrwt beam="1">  1        2 0.55299781E-01 0.11616917E+03</pdfrwt>
<pdfrwt beam="2">  1       -2 0.14440149E-02 0.11616917E+03</pdfrwt>
<totfact> 0.99960471E+04</totfact>
</mgrwt>
</event>
<event>
 4    1  0.4834411E-002  0.4358360E+02  0.7818608E-02  0.1483383E+00
          2   -1    0    0    0  501  0.00000000000E+00  0.00000000000E+00  0.10090239354E+03  0.10090239357E+03  0.25500000000E-02 0. -1.
         -2   -1    0    0  501    0 -0.00000000000E+00 -0.00000000000E+00 -0.47063561798E+01  0.47063568706E+01  0.25500000000E-02 0. -1.
          2    1    1    2    0  502 -0.18921550059E+02  0.10318074322E+02  0.55910470502E+02  0.59920517626E+02  0.25500000000E-02 0. -1.
         -2    1    1    2  502    0  0.18921550059E+02 -0.10318074322E+02  0.40285566861E+02  0.45688232819E+02  0.25500000000E-02 0. -1.
<mgrwt>
<rscale>  0 0.43583604E+02</rscale>
<asrwt>0</asrwt>
<pdfrwt beam="1">  1        2 0.15523444E-01 0.43583604E+02</pdfrwt>
<pdfrwt beam="2">  1       -2 0.72405490E-03 0.43583604E+02</pdfrwt>
<totfact> 0.84711550E+05</totfact>
</mgrwt>
</event>
<event>
 4    1  0.4834411E-002  0.6466179E+02  0.7818608E-02  0.1379248E+00
          2   -1    0    0    0  501  0.00000000000E+00  0.00000000000E+00  0.13520582948E+02  0.13520583188E+02  0.25500000000E-02 0. -1.
         -2   -1    0    0  501    0 -0.00000000000E+00 -0.00000000000E+00 -0.77310774407E+02  0.77310774450E+02  0.25500000000E-02 0. -1.
          2    1    1    2    0  502 -0.30003818990E+02  0.11990295605E+02 -0.33490793240E+02  0.46536325392E+02  0.25500000000E-02 0.  1.
         -2    1    1    2  502    0  0.30003818990E+02 -0.11990295605E+02 -0.30299398220E+02  0.44295032246E+02  0.25500000000E-02 0.  1.
<mgrwt>
<rscale>  0 0.64661789E+02</rscale>
<asrwt>0</asrwt>
<pdfrwt beam="1">  1        2 0.20800897E-02 0.64661789E+02</pdfrwt>
<pdfrwt beam="2">  1       -2 0.11893965E-01 0.64661789E+02</pdfrwt>
<totfact> 0.19991406E+05</totfact>
</mgrwt>
</event>
<event>
 4    1  0.4834411E-002  0.8229114E+02  0.7818608E-02  0.1322672E+00
          2   -1    0    0    0  501  0.00000000000E+00  0.00000000000E+00  0.21338667110E+03  0.21338667111E+03  0.25500000000E-02 0. -1.
         -2   -1    0    0  501    0 -0.00000000000E+00 -0.00000000000E+00 -0.79337573418E+01  0.79337577516E+01  0.25500000000E-02 0. -1.
          2    1    1    2    0  502 -0.25501690018E+02  0.30036956121E+02  0.70858305158E+02  0.81076842213E+02  0.25500000000E-02 0.  1.
         -2    1    1    2  502    0  0.25501690018E+02 -0.30036956121E+02  0.13459460860E+03  0.14024358665E+03  0.25500000000E-02 0.  1.
<mgrwt>
<rscale>  0 0.82291144E+02</rscale>
<asrwt>0</asrwt>
<pdfrwt beam="1">  1        2 0.32828722E-01 0.82291144E+02</pdfrwt>
<pdfrwt beam="2">  1       -2 0.12205780E-02 0.82291144E+02</pdfrwt>
<totfact> 0.20824433E+05</totfact>
</mgrwt>
</event>
<event>
 4    1  0.4834411E-002  0.4992864E+02  0.7818608E-02  0.1445727E+00
         -2   -1    0    0  501    0 -0.00000000000E+00  0.00000000000E+00  0.11814452129E+02  0.11814452404E+02  0.25500000000E-02 0.  1.
          2   -1    0    0    0  501  0.00000000000E+00 -0.00000000000E+00 -0.52750409056E+02  0.52750409117E+02  0.25500000000E-02 0.  1.
          2    1    1    2    0  502 -0.16201686348E+02  0.16179978449E+02 -0.33330092974E+02  0.40437376860E+02  0.25500000000E-02 0.  1.
         -2    1    1    2  502    0  0.16201686348E+02 -0.16179978449E+02 -0.76058639529E+01  0.24127484661E+02  0.25500000000E-02 0.  1.
<mgrwt>
<rscale>  0 0.49928637E+02</rscale>
<asrwt>0</asrwt>
<pdfrwt beam="2">  1        2 0.81154474E-02 0.49928637E+02</pdfrwt>
<pdfrwt beam="1">  1       -2 0.18176081E-02 0.49928637E+02</pdfrwt>
<totfact> 0.52019853E+05</totfact>
</mgrwt>
</event>
<event>
 4    1  0.4834411E-002  0.4157375E+02  0.7818608E-02  0.1496940E+00
         -2   -1    0    0  501    0 -0.00000000000E+00  0.00000000000E+00  0.15018312615E+02  0.15018312832E+02  0.25500000000E-02 0. -1.
          2   -1    0    0    0  501  0.00000000000E+00 -0.00000000000E+00 -0.28771157057E+02  0.28771157170E+02  0.25500000000E-02 0. -1.
          2    1    1    2    0  502  0.90171460622E+01  0.18550456491E+02 -0.95958589511E+01  0.22748821390E+02  0.25500000000E-02 0.  1.
         -2    1    1    2  502    0 -0.90171460622E+01 -0.18550456491E+02 -0.41569854909E+01  0.21040648612E+02  0.25500000000E-02 0.  1.
<mgrwt>
<rscale>  0 0.41573753E+02</rscale>
<asrwt>0</asrwt>
<pdfrwt beam="2">  1        2 0.44263319E-02 0.41573753E+02</pdfrwt>
<pdfrwt beam="1">  1       -2 0.23105097E-02 0.41573753E+02</pdfrwt>
<totfact> 0.75073958E+05</totfact>
</mgrwt>
</event>
<event>
 4    1  0.4834411E-002  0.4695294E+02  0.7818608E-02  0.1462505E+00
          2   -1    0    0    0  501  0.00000000000E+00  0.00000000000E+00  0.46580965988E+02  0.46580966058E+02  0.25500000000E-02 0.  1.
         -2   -1    0    0  501    0 -0.00000000000E+00 -0.00000000000E+00 -0.11831972898E+02  0.11831973173E+02  0.25500000000E-02 0.  1.
          2    1    1    2    0  502  0.14581349872E+02  0.17356583122E+02  0.97787149422E+01  0.24687851551E+02  0.25500000000E-02 0.  1.
         -2    1    1    2  502    0 -0.14581349872E+02 -0.17356583122E+02  0.24970278148E+02  0.33725087680E+02  0.25500000000E-02 0.  1.
<mgrwt>
<rscale>  0 0.46952944E+02</rscale>
<asrwt>0</asrwt>
<pdfrwt beam="1">  1        2 0.71663026E-02 0.46952944E+02</pdfrwt>
<pdfrwt beam="2">  1       -2 0.18203035E-02 0.46952944E+02</pdfrwt>
<totfact> 0.59483757E+05</totfact>
</mgrwt>
</event>
<event>
 4    1  0.4834411E-002  0.5560061E+02  0.7818608E-02  0.1417280E+00
          2   -1    0    0    0  501  0.00000000000E+00  0.00000000000E+00  0.33037939999E+03  0.33037940000E+03  0.25500000000E-02 0.  1.
         -2   -1    0    0  501    0 -0.00000000000E+00 -0.00000000000E+00 -0.23393006528E+01  0.23393020427E+01  0.25500000000E-02 0.  1.
          2    1    1    2    0  502 -0.12943357426E+02  0.16128428923E+02  0.52838377201E+02  0.56741085932E+02  0.25500000000E-02 0.  1.
         -2    1    1    2  502    0  0.12943357426E+02 -0.16128428923E+02  0.27520172214E+03  0.27597761611E+03  0.25500000000E-02 0.  1.
<mgrwt>
<rscale>  0 0.55600611E+02</rscale>
<asrwt>0</asrwt>
<pdfrwt beam="1">  1        2 0.50827597E-01 0.55600611E+02</pdfrwt>
<pdfrwt beam="2">  1       -2 0.35989253E-03 0.55600611E+02</pdfrwt>
<totfact> 0.67069316E+05</totfact>
</mgrwt>
</event>
<event>
 4    1  0.4834411E-002  0.4067926E+02  0.7818608E-02  0.1503271E+00
         -2   -1    0    0  501    0 -0.00000000000E+00  0.00000000000E+00  0.50915025028E+02  0.50915025092E+02  0.25500000000E-02 0.  1.
          2   -1    0    0    0  501  0.00000000000E+00 -0.00000000000E+00 -0.81253138069E+01  0.81253142071E+01  0.25500000000E-02 0.  1.
          2    1    1    2    0  502  0.16929138656E+02 -0.10684574101E+02  0.26616674998E+02  0.33304703179E+02  0.25500000000E-02 0. -1.
         -2    1    1    2  502    0 -0.16929138656E+02  0.10684574101E+02  0.16173036223E+02  0.25735636120E+02  0.25500000000E-02 0. -1.
<mgrwt>
<rscale>  0 0.40679261E+02</rscale>
<asrwt>0</asrwt>
<pdfrwt beam="2">  1        2 0.12500483E-02 0.40679261E+02</pdfrwt>
<pdfrwt beam="1">  1       -2 0.78330809E-02 0.40679261E+02</pdfrwt>
<totfact> 0.66516101E+05</totfact>
</mgrwt>
</event>
<event>
 4    1  0.4834411E-002  0.4149591E+02  0.7818608E-02  0.1497483E+00
          2   -1    0    0    0  501  0.00000000000E+00  0.00000000000E+00  0.46707190637E+03  0.46707190638E+03  0.25500000000E-02 0. -1.
         -2   -1    0    0  501    0 -0.00000000000E+00 -0.00000000000E+00 -0.92165013342E+00  0.92165366105E+00  0.25500000000E-02 0. -1.
          2    1    1    2    0  502 -0.74168947470E+01  0.19373734196E+02  0.22907497503E+03  0.23001238249E+03  0.25500000000E-02 0. -1.
         -2    1    1    2  502    0  0.74168947470E+01 -0.19373734196E+02  0.23707528121E+03  0.23798117756E+03  0.25500000000E-02 0. -1.
<mgrwt>
<rscale>  0 0.41495914E+02</rscale>
<asrwt>0</asrwt>
<pdfrwt beam="1">  1        2 0.71857207E-01 0.41495914E+02</pdfrwt>
<pdfrwt beam="2">  1       -2 0.14179262E-03 0.41495914E+02</pdfrwt>
<totfact> 0.15515921E+06</totfact>
</mgrwt>
</event>
<event>
 4    1  0.4834411E-002  0.5158822E+02  0.7818608E-02  0.1436959E+00
         -2   -1    0    0  501    0 -0.00000000000E+00  0.00000000000E+00  0.71415911118E+02  0.71415911163E+02  0.25500000000E-02 0.  1.
          2   -1    0    0    0  501  0.00000000000E+00 -0.00000000000E+00 -0.93163553427E+01  0.93163556917E+01  0.25500000000E-02 0.  1.
          2    1    1    2    0  502 -0.99302902539E+01 -0.17390354141E+02  0.56080864511E+01  0.20796291059E+02  0.25500000000E-02 0.  1.
         -2    1    1    2  502    0  0.99302902539E+01  0.17390354141E+02  0.56491469324E+02  0.59935975796E+02  0.25500000000E-02 0.  1.
<mgrwt>
<rscale>  0 0.51588217E+02</rscale>
<asrwt>0</asrwt>
<pdfrwt beam="2">  1        2 0.14332854E-02 0.51588217E+02</pdfrwt>
<pdfrwt beam="1">  1       -2 0.10987064E-01 0.51588217E+02</pdfrwt>
<totfact> 0.35330926E+05</totfact>
</mgrwt>
</event>
<event>
 4    1  0.4834411E-002  0.6859076E+02  0.7818608E-02  0.1364952E+00
          2   -1    0    0    0  501  0.00000000000E+00  0.00000000000E+00  0.19308620979E+02  0.19308621147E+02  0.25500000000E-02 0.  1.
         -2   -1    0    0  501    0 -0.00000000000E+00 -0.00000000000E+00 -0.60914395438E+02  0.60914395491E+02  0.25500000000E-02 0.  1.
          2    1    1    2    0  502 -0.43291824352E+01  0.29894829622E+02 -0.18090189331E+01  0.30260786749E+02  0.25500000000E-02 0. -1.
         -2    1    1    2  502    0  0.43291824352E+01 -0.29894829622E+02 -0.39796755526E+02  0.49962229889E+02  0.25500000000E-02 0. -1.
<mgrwt>
<rscale>  0 0.68590757E+02</rscale>
<asrwt>0</asrwt>
<pdfrwt beam="1">  1        2 0.29705571E-02 0.68590757E+02</pdfrwt>
<pdfrwt beam="2">  1       -2 0.93714454E-02 0.68590757E+02</pdfrwt>
<totfact> 0.18256312E+05</totfact>
</mgrwt>
</event>
<event>
 4    1  0.4834411E-002  0.4860726E+02  0.7818608E-02  0.1453002E+00
          2   -1    0    0    0  501  0.00000000000E+00  0.00000000000E+00  0.70377593981E+02  0.70377594027E+02  0.25500000000E-02 0. -1.
         -2   -1    0    0  501    0 -0.00000000000E+00 -0.00000000000E+00 -0.83928201470E+01  0.83928205344E+01  0.25500000000E-02 0. -1.
          2    1    1    2    0  502 -0.40948750131E+01  0.19795798650E+02  0.91285032202E+01  0.22180424322E+02  0.25500000000E-02 0.  1.
         -2    1    1    2  502    0  0.40948750131E+01 -0.19795798650E+02  0.52856270614E+02  0.56589990239E+02  0.25500000000E-02 0.  1.
<mgrwt>
<rscale>  0 0.48607263E+02</rscale>
<asrwt>0</asrwt>
<pdfrwt beam="1">  1        2 0.10827322E-01 0.48607263E+02</pdfrwt>
<pdfrwt beam="2">  1       -2 0.12912032E-02 0.48607263E+02</pdfrwt>
<totfact> 0.59125837E+05</totfact>
</mgrwt>
</event>
<event>
 4    1  0.4834411E-002  0.4259503E+02  0.7818608E-02  0.1489939E+00
         -2   -1    0    0  501    0 -0.00000000000E+00  0.00000000000E+00  0.10673377840E+02  0.10673378144E+02  0.25500000000E-02 0. -1.
          2   -1    0    0    0  501  0.00000000000E+00 -0.00000000000E+00 -0.42496781802E+02  0.42496781878E+02  0.25500000000E-02 0. -1.
          2    1    1    2    0  502 -0.10715750456E+02 -0.18228576432E+02 -0.12735125775E+02  0.24683835634E+02  0.25500000000E-02 0.  1.
         -2    1    1    2  502    0  0.10715750456E+02  0.18228576432E+02 -0.19088278187E+02  0.28486324389E+02  0.25500000000E-02 0.  1.
<mgrwt>
<rscale>  0 0.42595033E+02</rscale>
<asrwt>0</asrwt>
<pdfrwt beam="2">  1        2 0.65379664E-02 0.42595033E+02</pdfrwt>
<pdfrwt beam="1">  1       -2 0.16420582E-02 0.42595033E+02</pdfrwt>
<totfact> 0.74973221E+05</totfact>
</mgrwt>
</event>
<event>
 4    1  0.4834411E-002  0.4469564E+02  0.7818608E-02  0.1476251E+00
         -2   -1    0    0  501    0 -0.00000000000E+00  0.00000000000E+00  0.21799886399E+00  0.21801377755E+00  0.25500000000E-02 0.  1.
          2   -1    0    0    0  501  0.00000000000E+00 -0.00000000000E+00 -0.22908745623E+04  0.22908745623E+04  0.25500000000E-02 0.  1.
          2    1    1    2    0  502 -0.21197527267E+02  0.70623388877E+01 -0.11216520716E+04  0.11218745837E+04  0.25500000000E-02 0. -1.
         -2    1    1    2  502    0  0.21197527267E+02 -0.70623388877E+01 -0.11690044918E+04  0.11692179923E+04  0.25500000000E-02 0. -1.
<mgrwt>
<rscale>  0 0.44695644E+02</rscale>
<asrwt>0</asrwt>
<pdfrwt beam="2">  1        2 0.35242296E+00 0.44695644E+02</pdfrwt>
<pdfrwt beam="1">  1       -2 0.33541269E-04 0.44695644E+02</pdfrwt>
<totfact> 0.10513222E+06</totfact>
</mgrwt>
</event>
<event>
 4    1  0.4834411E-002  0.4208768E+02  0.7818608E-02  0.1493387E+00
         -2   -1    0    0  501    0 -0.00000000000E+00  0.00000000000E+00  0.84981126335E+02  0.84981126373E+02  0.25500000000E-02 0.  1.
          2   -1    0    0    0  501  0.00000000000E+00 -0.00000000000E+00 -0.52110758624E+01  0.52110764863E+01  0.25500000000E-02 0.  1.
          2    1    1    2    0  502 -0.19277570952E+02  0.75293973529E+01  0.48052641680E+02  0.52319909645E+02  0.25500000000E-02 0.  1.
         -2    1    1    2  502    0  0.19277570952E+02 -0.75293973529E+01  0.31717408793E+02  0.37872293215E+02  0.25500000000E-02 0.  1.
<mgrwt>
<rscale>  0 0.42087676E+02</rscale>
<asrwt>0</asrwt>
<pdfrwt beam="2">  1        2 0.80170409E-03 0.42087676E+02</pdfrwt>
<pdfrwt beam="1">  1       -2 0.13074019E-01 0.42087676E+02</pdfrwt>
<totfact> 0.55664737E+05</totfact>
</mgrwt>
</event>
<event>
 4    1  0.4834411E-002  0.9776298E+02  0.7818608E-02  0.1285072E+00
         -2   -1    0    0  501    0 -0.00000000000E+00  0.00000000000E+00  0.12207901462E+02  0.12207901728E+02  0.25500000000E-02 0. -1.
          2   -1    0    0    0  501  0.00000000000E+00 -0.00000000000E+00 -0.19572568629E+03  0.19572568631E+03  0.25500000000E-02 0. -1.
          2    1    1    2    0  502 -0.45259897546E+02 -0.98550461248E+01 -0.12497009375E+03  0.13327829756E+03  0.25500000000E-02 0. -1.
         -2    1    1    2  502    0  0.45259897546E+02  0.98550461248E+01 -0.58547691074E+02  0.74655290479E+02  0.25500000000E-02 0. -1.
<mgrwt>
<rscale>  0 0.97762977E+02</rscale>
<asrwt>0</asrwt>
<pdfrwt beam="2">  1        2 0.30111642E-01 0.97762977E+02</pdfrwt>
<pdfrwt beam="1">  1       -2 0.18781388E-02 0.97762977E+02</pdfrwt>
<totfact> 0.12707321E+05</totfact>
</mgrwt>
</event>
<event>
 4    1  0.4834411E-002  0.4425491E+02  0.7818608E-02  0.1479047E+00
         -2   -1    0    0  501    0 -0.00000000000E+00  0.00000000000E+00  0.20121678177E+03  0.20121678179E+03  0.25500000000E-02 0.  1.
          2   -1    0    0    0  501  0.00000000000E+00 -0.00000000000E+00 -0.24333169554E+01  0.24333182916E+01  0.25500000000E-02 0.  1.
          2    1    1    2    0  502 -0.21567118889E+02 -0.29923358321E+01  0.81257301794E+02  0.84123978699E+02  0.25500000000E-02 0.  1.
         -2    1    1    2  502    0  0.21567118889E+02  0.29923358321E+01  0.11752616302E+03  0.11952612138E+03  0.25500000000E-02 0.  1.
<mgrwt>
<rscale>  0 0.44254914E+02</rscale>
<asrwt>0</asrwt>
<pdfrwt beam="2">  1        2 0.37435654E-03 0.44254914E+02</pdfrwt>
<pdfrwt beam="1">  1       -2 0.30956430E-01 0.44254914E+02</pdfrwt>
<totfact> 0.37892309E+05</totfact>
</mgrwt>
</event>
<event>
 4    1  0.4834411E-002  0.6324785E+02  0.7818608E-02  0.1384686E+00
          2   -1    0    0    0  501  0.00000000000E+00  0.00000000000E+00  0.99744592752E+03  0.99744592752E+03  0.25500000000E-02 0.  1.
         -2   -1    0    0  501    0 -0.00000000000E+00 -0.00000000000E+00 -0.10026317224E+01  0.10026349652E+01  0.25500000000E-02 0.  1.
          2    1    1    2    0  502 -0.26984744238E+02  0.96978339624E+01  0.28769619638E+03  0.28912164538E+03  0.25500000000E-02 0.  1.
         -2    1    1    2  502    0  0.26984744238E+02 -0.96978339624E+01  0.70874709941E+03  0.70932691711E+03  0.25500000000E-02 0.  1.
<mgrwt>
<rscale>  0 0.63247847E+02</rscale>
<asrwt>0</asrwt>
<pdfrwt beam="1">  1        2 0.15345368E+00 0.63247847E+02</pdfrwt>
<pdfrwt beam="2">  1       -2 0.15425082E-03 0.63247847E+02</pdfrwt>
<totfact> 0.64318328E+05</totfact>
</mgrwt>
</event>
<event>
 4    1  0.4834411E-002  0.9377677E+02  0.7818608E-02  0.1293955E+00
         -2   -1    0    0  501    0 -0.00000000000E+00  0.00000000000E+00  0.59159136824E+01  0.59159142320E+01  0.25500000000E-02 0. -1.
          2   -1    0    0    0  501  0.00000000000E+00 -0.00000000000E+00 -0.37162819754E+03  0.37162819755E+03  0.25500000000E-02 0. -1.
          2    1    1    2    0  502  0.22237955498E+02  0.23381096898E+02 -0.31981774183E+03  0.32144142600E+03  0.25500000000E-02 0. -1.
         -2    1    1    2  502    0 -0.22237955498E+02 -0.23381096898E+02 -0.45894542035E+02  0.56102685782E+02  0.25500000000E-02 0. -1.
<mgrwt>
<rscale>  0 0.93776766E+02</rscale>
<asrwt>0</asrwt>
<pdfrwt beam="2">  1        2 0.57173551E-01 0.93776766E+02</pdfrwt>
<pdfrwt beam="1">  1       -2 0.91014090E-03 0.93776766E+02</pdfrwt>
<totfact> 0.18036894E+05</totfact>
</mgrwt>
</event>
<event>
 4    1  0.4834411E-002  0.4390983E+02  0.7818608E-02  0.1481264E+00
         -2   -1    0    0  501    0 -0.00000000000E+00  0.00000000000E+00  0.30972198948E+03  0.30972198949E+03  0.25500000000E-02 0.  1.
          2   -1    0    0    0  501  0.00000000000E+00 -0.00000000000E+00 -0.15562925643E+01  0.15562946534E+01  0.25500000000E-02 0.  1.
          2    1    1    2    0  502 -0.10260391192E+02 -0.17546527869E+02  0.95255792585E+02  0.97400319790E+02  0.25500000000E-02 0.  1.
         -2    1    1    2  502    0  0.10260391192E+02  0.17546527869E+02  0.21290990433E+03  0.21387796435E+03  0.25500000000E-02 0.  1.
<mgrwt>
<rscale>  0 0.43909833E+02</rscale>
<asrwt>0</asrwt>
<pdfrwt beam="2">  1        2 0.23942981E-03 0.43909833E+02</pdfrwt>
<pdfrwt beam="1">  1       -2 0.47649532E-01 0.43909833E+02</pdfrwt>
<totfact> 0.31329124E+05</totfact>
</mgrwt>
</event>
<event>
 4    1  0.4834411E-002  0.4714511E+02  0.7818608E-02  0.1461378E+00
          2   -1    0    0    0  501  0.00000000000E+00  0.00000000000E+00  0.77755427846E+02  0.77755427888E+02  0.25500000000E-02 0.  1.
         -2   -1    0    0  501    0 -0.00000000000E+00 -0.00000000000E+00 -0.71463234485E+01  0.71463239035E+01  0.25500000000E-02 0.  1.
          2    1    1    2    0  502 -0.27728993928E+01 -0.23354260150E+02  0.32425983698E+02  0.40056895330E+02  0.25500000000E-02 0.  1.
         -2    1    1    2  502    0  0.27728993928E+01  0.23354260150E+02  0.38183120699E+02  0.44844856461E+02  0.25500000000E-02 0.  1.
<mgrwt>
<rscale>  0 0.47145115E+02</rscale>
<asrwt>0</asrwt>
<pdfrwt beam="1">  1        2 0.11962374E-01 0.47145115E+02</pdfrwt>
<pdfrwt beam="2">  1       -2 0.10994344E-02 0.47145115E+02</pdfrwt>
<totfact> 0.65324815E+05</totfact>
</mgrwt>
</event>
<event>
 4    1  0.4834411E-002  0.6507138E+02  0.7818608E-02  0.1377703E+00
          2   -1    0    0    0  501  0.00000000000E+00  0.00000000000E+00  0.27216155891E+03  0.27216155892E+03  0.25500000000E-02 0.  1.
         -2   -1    0    0  501    0 -0.00000000000E+00 -0.00000000000E+00 -0.38894947693E+01  0.38894956052E+01  0.25500000000E-02 0.  1.
          2    1    1    2    0  502  0.74381628253E+00 -0.27497156778E+02  0.60422308715E+02  0.66389022365E+02  0.25500000000E-02 0.  1.
         -2    1    1    2  502    0 -0.74381628253E+00  0.27497156778E+02  0.20784975543E+03  0.20966203217E+03  0.25500000000E-02 0.  1.
<mgrwt>
<rscale>  0 0.65071379E+02</rscale>
<asrwt>0</asrwt>
<pdfrwt beam="1">  1        2 0.41870988E-01 0.65071379E+02</pdfrwt>
<pdfrwt beam="2">  1       -2 0.59838418E-03 0.65071379E+02</pdfrwt>
<totfact> 0.41957263E+05</totfact>
</mgrwt>
</event>
<event>
 4    1  0.4834411E-002  0.6105928E+02  0.7818608E-02  0.1393439E+00
         -2   -1    0    0  501    0 -0.00000000000E+00  0.00000000000E+00  0.97172985499E+01  0.97172988845E+01  0.25500000000E-02 0.  1.
          2   -1    0    0    0  501  0.00000000000E+00 -0.00000000000E+00 -0.95917499357E+02  0.95917499391E+02  0.25500000000E-02 0.  1.
          2    1    1    2    0  502 -0.26930386203E+02  0.11125412843E+02 -0.58865137663E+02  0.65681998679E+02  0.25500000000E-02 0. -1.
         -2    1    1    2  502    0  0.26930386203E+02 -0.11125412843E+02 -0.27335063144E+02  0.39952799596E+02  0.25500000000E-02 0. -1.
<mgrwt>
<rscale>  0 0.61059283E+02</rscale>
<asrwt>0</asrwt>
<pdfrwt beam="2">  1        2 0.14756538E-01 0.61059283E+02</pdfrwt>
<pdfrwt beam="1">  1       -2 0.14949691E-02 0.61059283E+02</pdfrwt>
<totfact> 0.35451506E+05</totfact>
</mgrwt>
</event>
<event>
 4    1  0.4834411E-002  0.6059839E+02  0.7818608E-02  0.1395338E+00
         -2   -1    0    0  501    0 -0.00000000000E+00  0.00000000000E+00  0.23694120710E+02  0.23694120847E+02  0.25500000000E-02 0. -1.
          2   -1    0    0    0  501  0.00000000000E+00 -0.00000000000E+00 -0.38745524429E+02  0.38745524513E+02  0.25500000000E-02 0. -1.
          2    1    1    2    0  502 -0.30129151620E+01  0.28470036267E+02  0.26964461916E+01  0.28755720325E+02  0.25500000000E-02 0. -1.
         -2    1    1    2  502    0  0.30129151620E+01 -0.28470036267E+02 -0.17747849911E+02  0.33683925036E+02  0.25500000000E-02 0. -1.
<mgrwt>
<rscale>  0 0.60598387E+02</rscale>
<asrwt>0</asrwt>
<pdfrwt beam="2">  1        2 0.59608499E-02 0.60598387E+02</pdfrwt>
<pdfrwt beam="1">  1       -2 0.36452494E-02 0.60598387E+02</pdfrwt>
<totfact> 0.29513940E+05</totfact>
</mgrwt>
</event>
<event>
 4    1  0.4834411E-002  0.6470930E+02  0.7818608E-02  0.1379068E+00
          2   -1    0    0    0  501  0.00000000000E+00  0.00000000000E+00  0.11285827006E+04  0.11285827006E+04  0.25500000000E-02 0.  1.
         -2   -1    0    0  501    0 -0.00000000000E+00 -0.00000000000E+00 -0.92755397821E+00  0.92755748339E+00  0.25500000000E-02 0.  1.
          2    1    1    2    0  502 -0.29578990719E+02  0.11843107749E+02  0.46563178085E+03  0.46672061368E+03  0.25500000000E-02 0. -1.
         -2    1    1    2  502    0  0.29578990719E+02 -0.11843107749E+02  0.66202336573E+03  0.66278964436E+03  0.25500000000E-02 0. -1.
<mgrwt>
<rscale>  0 0.64709299E+02</rscale>
<asrwt>0</asrwt>
<pdfrwt beam="1">  1        2 0.17362825E+00 0.64709299E+02</pdfrwt>
<pdfrwt beam="2">  1       -2 0.14270077E-03 0.64709299E+02</pdfrwt>
<totfact> 0.60680848E+05</totfact>
</mgrwt>
</event>
<event>
 4    1  0.4834411E-002  0.4399950E+02  0.7818608E-02  0.1480686E+00
          2   -1    0    0    0  501  0.00000000000E+00  0.00000000000E+00  0.14521031748E+04  0.14521031748E+04  0.25500000000E-02 0. -1.
         -2   -1    0    0  501    0 -0.00000000000E+00 -0.00000000000E+00 -0.33329726009E+00  0.33330701475E+00  0.25500000000E-02 0. -1.
          2    1    1    2    0  502 -0.20650617317E+02 -0.63838415427E+01  0.86113717395E+03  0.86140840128E+03  0.25500000000E-02 0. -1.
         -2    1    1    2  502    0  0.20650617317E+02  0.63838415427E+01  0.59063270364E+03  0.59102808059E+03  0.25500000000E-02 0. -1.
<mgrwt>
<rscale>  0 0.43999504E+02</rscale>
<asrwt>0</asrwt>
<pdfrwt beam="1">  1        2 0.22340234E+00 0.43999504E+02</pdfrwt>
<pdfrwt beam="2">  1       -2 0.51276828E-04 0.43999504E+02</pdfrwt>
<totfact> 0.15174882E+06</totfact>
</mgrwt>
</event>
<event>
 4    1  0.4834411E-002  0.7164508E+02  0.7818608E-02  0.1354587E+00
         -2   -1    0    0  501    0 -0.00000000000E+00  0.00000000000E+00  0.10396208286E+01  0.10396239559E+01  0.25500000000E-02 0.  1.
          2   -1    0    0    0  501  0.00000000000E+00 -0.00000000000E+00 -0.12343466268E+04  0.12343466268E+04  0.25500000000E-02 0.  1.
          2    1    1    2    0  502 -0.18052267808E+02 -0.18905566417E+02 -0.19430227369E+03  0.19605274388E+03  0.25500000000E-02 0. -1.
         -2    1    1    2  502    0  0.18052267808E+02  0.18905566417E+02 -0.10390047323E+04  0.10393335069E+04  0.25500000000E-02 0. -1.
<mgrwt>
<rscale>  0 0.71645081E+02</rscale>
<asrwt>0</asrwt>
<pdfrwt beam="2">  1        2 0.18989831E+00 0.71645081E+02</pdfrwt>
<pdfrwt beam="1">  1       -2 0.15994289E-03 0.71645081E+02</pdfrwt>
<totfact> 0.46394966E+05</totfact>
</mgrwt>
</event>
<event>
 4    1  0.4834411E-002  0.8087748E+02  0.7818608E-02  0.1326580E+00
         -2   -1    0    0  501    0 -0.00000000000E+00  0.00000000000E+00  0.32956975557E+02  0.32956975656E+02  0.25500000000E-02 0.  1.
          2   -1    0    0    0  501  0.00000000000E+00 -0.00000000000E+00 -0.49618986906E+02  0.49618986971E+02  0.25500000000E-02 0.  1.
          2    1    1    2    0  502  0.35076509599E+02 -0.92337519354E+01  0.99237336349E+01  0.37604576799E+02  0.25500000000E-02 0.  1.
         -2    1    1    2  502    0 -0.35076509599E+02  0.92337519354E+01 -0.26585744983E+02  0.44971385828E+02  0.25500000000E-02 0.  1.
<mgrwt>
<rscale>  0 0.80877481E+02</rscale>
<asrwt>0</asrwt>
<pdfrwt beam="2">  1        2 0.76336903E-02 0.80877481E+02</pdfrwt>
<pdfrwt beam="1">  1       -2 0.50703039E-02 0.80877481E+02</pdfrwt>
<totfact> 0.14142772E+05</totfact>
</mgrwt>
</event>
<event>
 4    1  0.4834411E-002  0.6946223E+02  0.7818608E-02  0.1361931E+00
         -2   -1    0    0  501    0 -0.00000000000E+00  0.00000000000E+00  0.32049168007E+02  0.32049168109E+02  0.25500000000E-02 0. -1.
          2   -1    0    0    0  501  0.00000000000E+00 -0.00000000000E+00 -0.37637490733E+02  0.37637490820E+02  0.25500000000E-02 0. -1.
          2    1    1    2    0  502 -0.19295090361E+02  0.10796711289E+02 -0.29664664794E+02  0.36998132798E+02  0.25500000000E-02 0. -1.
         -2    1    1    2  502    0  0.19295090361E+02 -0.10796711289E+02  0.24076342068E+02  0.32688526130E+02  0.25500000000E-02 0. -1.
<mgrwt>
<rscale>  0 0.69462228E+02</rscale>
<asrwt>0</asrwt>
<pdfrwt beam="2">  1        2 0.57903832E-02 0.69462228E+02</pdfrwt>
<pdfrwt beam="1">  1       -2 0.49306413E-02 0.69462228E+02</pdfrwt>
<totfact> 0.20256738E+05</totfact>
</mgrwt>
</event>
<event>
 4    1  0.4834411E-002  0.4407244E+02  0.7818608E-02  0.1480217E+00
          2   -1    0    0    0  501  0.00000000000E+00  0.00000000000E+00  0.21081530290E+04  0.21081530290E+04  0.25500000000E-02 0.  1.
         -2   -1    0    0  501    0 -0.00000000000E+00 -0.00000000000E+00 -0.23033440308E+00  0.23034851800E+00  0.25500000000E-02 0.  1.
          2    1    1    2    0  502 -0.11420440247E+02 -0.18280302754E+02  0.12731827804E+04  0.12733652218E+04  0.25500000000E-02 0.  1.
         -2    1    1    2  502    0  0.11420440247E+02  0.18280302754E+02  0.83473991424E+03  0.83501815570E+03  0.25500000000E-02 0.  1.
<mgrwt>
<rscale>  0 0.44072443E+02</rscale>
<asrwt>0</asrwt>
<pdfrwt beam="1">  1        2 0.32431001E+00 0.44072443E+02</pdfrwt>
<pdfrwt beam="2">  1       -2 0.35439467E-04 0.44072443E+02</pdfrwt>
<totfact> 0.11969693E+06</totfact>
</mgrwt>
</event>
<event>
 4    1  0.4834411E-002  0.6339043E+02  0.7818608E-02  0.1384130E+00
         -2   -1    0    0  501    0 -0.00000000000E+00  0.00000000000E+00  0.40187268287E+01  0.40187276377E+01  0.25500000000E-02 0. -1.
          2   -1    0    0    0  501  0.00000000000E+00 -0.00000000000E+00 -0.24997630009E+03  0.24997630010E+03  0.25500000000E-02 0. -1.
          2    1    1    2    0  502  0.12540693419E+01  0.30117062668E+02 -0.83724798978E+02  0.88985684939E+02  0.25500000000E-02 0.  1.
         -2    1    1    2  502    0 -0.12540693419E+01 -0.30117062668E+02 -0.16223277428E+03  0.16500934280E+03  0.25500000000E-02 0.  1.
<mgrwt>
<rscale>  0 0.63390427E+02</rscale>
<asrwt>0</asrwt>
<pdfrwt beam="2">  1        2 0.38457880E-01 0.63390427E+02</pdfrwt>
<pdfrwt beam="1">  1       -2 0.61826592E-03 0.63390427E+02</pdfrwt>
<totfact> 0.43540347E+05</totfact>
</mgrwt>
</event>
<event>
 4    1  0.4834411E-002  0.1527469E+03  0.7818608E-02  0.1197138E+00
          2   -1    0    0    0  501  0.00000000000E+00  0.00000000000E+00  0.50986788632E+03  0.50986788632E+03  0.25500000000E-02 0. -1.
         -2   -1    0    0  501    0 -0.00000000000E+00 -0.00000000000E+00 -0.11440034772E+02  0.11440035056E+02  0.25500000000E-02 0. -1.
          2    1    1    2    0  502 -0.49644424150E+02  0.35752987009E+02  0.40524149960E+03  0.40983352466E+03  0.25500000000E-02 0. -1.
         -2    1    1    2  502    0  0.49644424150E+02 -0.35752987009E+02  0.93186351947E+02  0.11147439672E+03  0.25500000000E-02 0. -1.
<mgrwt>
<rscale>  0 0.15274693E+03</rscale>
<asrwt>0</asrwt>
<pdfrwt beam="1">  1        2 0.78441200E-01 0.15274693E+03</pdfrwt>
<pdfrwt beam="2">  1       -2 0.17600057E-02 0.15274693E+03</pdfrwt>
<totfact> 0.53310564E+04</totfact>
</mgrwt>
</event>
<event>
 4    1  0.4834411E-002  0.9852025E+02  0.7818608E-02  0.1283439E+00
         -2   -1    0    0  501    0 -0.00000000000E+00  0.00000000000E+00  0.53184673643E+01  0.53184679756E+01  0.25500000000E-02 0. -1.
          2   -1    0    0    0  501  0.00000000000E+00 -0.00000000000E+00 -0.45625168758E+03  0.45625168759E+03  0.25500000000E-02 0. -1.
          2    1    1    2    0  502 -0.19149187492E+02  0.39389845837E+02 -0.33109384496E+03  0.33397812131E+03  0.25500000000E-02 0.  1.
         -2    1    1    2  502    0  0.19149187492E+02 -0.39389845837E+02 -0.11983937526E+03  0.12759203425E+03  0.25500000000E-02 0.  1.
<mgrwt>
<rscale>  0 0.98520249E+02</rscale>
<asrwt>0</asrwt>
<pdfrwt beam="2">  1        2 0.70192536E-01 0.98520249E+02</pdfrwt>
<pdfrwt beam="1">  1       -2 0.81822616E-03 0.98520249E+02</pdfrwt>
<totfact> 0.17008184E+05</totfact>
</mgrwt>
</event>
<event>
 4    1  0.4834411E-002  0.9485487E+02  0.7818608E-02  0.1291503E+00
          2   -1    0    0    0  501  0.00000000000E+00  0.00000000000E+00  0.68755584191E+03  0.68755584192E+03  0.25500000000E-02 0. -1.
         -2   -1    0    0  501    0 -0.00000000000E+00 -0.00000000000E+00 -0.32715327898E+01  0.32715337836E+01  0.25500000000E-02 0. -1.
          2    1    1    2    0  502  0.46980615018E+02  0.62090650697E+01  0.32826400413E+03  0.33166698222E+03  0.25500000000E-02 0. -1.
         -2    1    1    2  502    0 -0.46980615018E+02 -0.62090650697E+01  0.35602030499E+03  0.35916039348E+03  0.25500000000E-02 0. -1.
<mgrwt>
<rscale>  0 0.94854875E+02</rscale>
<asrwt>0</asrwt>
<pdfrwt beam="1">  1        2 0.10577770E+00 0.94854875E+02</pdfrwt>
<pdfrwt beam="2">  1       -2 0.50331341E-03 0.94854875E+02</pdfrwt>
<totfact> 0.21269574E+05</totfact>
</mgrwt>
</event>
<event>
 4    1  0.4834411E-002  0.4994329E+02  0.7818608E-02  0.1445648E+00
         -2   -1    0    0  501    0 -0.00000000000E+00  0.00000000000E+00  0.13321889759E+01  0.13321914164E+01  0.25500000000E-02 0. -1.
          2   -1    0    0    0  501  0.00000000000E+00 -0.00000000000E+00 -0.46808852151E+03  0.46808852152E+03  0.25500000000E-02 0. -1.
          2    1    1    2    0  502  0.17315709269E+02  0.17335474734E+02 -0.27867982297E+03  0.27975488594E+03  0.25500000000E-02 0.  1.
         -2    1    1    2  502    0 -0.17315709269E+02 -0.17335474734E+02 -0.18807650957E+03  0.18966582699E+03  0.25500000000E-02 0.  1.
<mgrwt>
<rscale>  0 0.49943286E+02</rscale>
<asrwt>0</asrwt>
<pdfrwt beam="2">  1        2 0.72013488E-01 0.49943286E+02</pdfrwt>
<pdfrwt beam="1">  1       -2 0.20495271E-03 0.49943286E+02</pdfrwt>
<totfact> 0.98656919E+05</totfact>
</mgrwt>
</event>
<event>
 4    1  0.4834411E-002  0.7971710E+02  0.7818608E-02  0.1329856E+00
          2   -1    0    0    0  501  0.00000000000E+00  0.00000000000E+00  0.20700569800E+03  0.20700569802E+03  0.25500000000E-02 0.  1.
         -2   -1    0    0  501    0 -0.00000000000E+00 -0.00000000000E+00 -0.76746863706E+01  0.76746867942E+01  0.25500000000E-02 0.  1.
          2    1    1    2    0  502 -0.29745163338E+02 -0.12344335822E+02  0.16291134414E+03  0.16606403411E+03  0.25500000000E-02 0.  1.
         -2    1    1    2  502    0  0.29745163338E+02  0.12344335822E+02  0.36419667491E+02  0.48616350702E+02  0.25500000000E-02 0.  1.
<mgrwt>
<rscale>  0 0.79717096E+02</rscale>
<asrwt>0</asrwt>
<pdfrwt beam="1">  1        2 0.31847028E-01 0.79717096E+02</pdfrwt>
<pdfrwt beam="2">  1       -2 0.11807211E-02 0.79717096E+02</pdfrwt>
<totfact> 0.22410942E+05</totfact>
</mgrwt>
</event>
<event>
 4    1  0.4834411E-002  0.7937299E+02  0.7818608E-02  0.1330840E+00
         -2   -1    0    0  501    0 -0.00000000000E+00  0.00000000000E+00  0.48544181478E+01  0.48544188175E+01  0.25500000000E-02 0. -1.
          2   -1    0    0    0  501  0.00000000000E+00 -0.00000000000E+00 -0.32445038250E+03  0.32445038251E+03  0.25500000000E-02 0. -1.
          2    1    1    2    0  502  0.23217046367E+02  0.11480359442E+02 -0.28455204360E+03  0.28572835949E+03  0.25500000000E-02 0.  1.
         -2    1    1    2  502    0 -0.23217046367E+02 -0.11480359442E+02 -0.35043920757E+02  0.43576441840E+02  0.25500000000E-02 0.  1.
<mgrwt>
<rscale>  0 0.79372991E+02</rscale>
<asrwt>0</asrwt>
<pdfrwt beam="2">  1        2 0.49915427E-01 0.79372991E+02</pdfrwt>
<pdfrwt beam="1">  1       -2 0.74683387E-03 0.79372991E+02</pdfrwt>
<totfact> 0.26683419E+05</totfact>
</mgrwt>
</event>
<event>
 4    1  0.4834411E-002  0.4349688E+02  0.7818608E-02  0.1483949E+00
         -2   -1    0    0  501    0 -0.00000000000E+00  0.00000000000E+00  0.52464287539E+00  0.52464907243E+00  0.25500000000E-02 0.  1.
          2   -1    0    0    0  501  0.00000000000E+00 -0.00000000000E+00 -0.90155019944E+03  0.90155019944E+03  0.25500000000E-02 0.  1.
          2    1    1    2    0  502  0.25394592684E+01  0.21488978993E+02 -0.49580522407E+03  0.49627718595E+03  0.25500000000E-02 0. -1.
         -2    1    1    2  502    0 -0.25394592684E+01 -0.21488978993E+02 -0.40522033249E+03  0.40579766256E+03  0.25500000000E-02 0. -1.
<mgrwt>
<rscale>  0 0.43496882E+02</rscale>
<asrwt>0</asrwt>
<pdfrwt beam="2">  1        2 0.13869879E+00 0.43496882E+02</pdfrwt>
<pdfrwt beam="1">  1       -2 0.80715487E-04 0.43496882E+02</pdfrwt>
<totfact> 0.16152644E+06</totfact>
</mgrwt>
</event>
<event>
 4    1  0.4834411E-002  0.8483733E+02  0.7818608E-02  0.1315858E+00
          2   -1    0    0    0  501  0.00000000000E+00  0.00000000000E+00  0.22909803829E+04  0.22909803829E+04  0.25500000000E-02 0.  1.
         -2   -1    0    0  501    0 -0.00000000000E+00 -0.00000000000E+00 -0.78540110944E+00  0.78540524903E+00  0.25500000000E-02 0.  1.
          2    1    1    2    0  502 -0.34706309356E+02 -0.15065922179E+02  0.16631917454E+04  0.16636220399E+04  0.25500000000E-02 0. -1.
         -2    1    1    2  502    0  0.34706309356E+02  0.15065922179E+02  0.62700323645E+03  0.62814374823E+03  0.25500000000E-02 0. -1.
<mgrwt>
<rscale>  0 0.84837333E+02</rscale>
<asrwt>0</asrwt>
<pdfrwt beam="1">  1        2 0.35245648E+00 0.84837333E+02</pdfrwt>
<pdfrwt beam="2">  1       -2 0.12083196E-03 0.84837333E+02</pdfrwt>
<totfact> 0.20449017E+05</totfact>
</mgrwt>
</event>
<event>
 4    1  0.4834411E-002  0.1096712E+03  0.7818608E-02  0.1261180E+00
          2   -1    0    0    0  501  0.00000000000E+00  0.00000000000E+00  0.48064927288E+03  0.48064927289E+03  0.25500000000E-02 0.  1.
         -2   -1    0    0  501    0 -0.00000000000E+00 -0.00000000000E+00 -0.62560052299E+01  0.62560057496E+01  0.25500000000E-02 0.  1.
          2    1    1    2    0  502  0.50218006191E+02 -0.10743375904E+01  0.13952948681E+03  0.14829524619E+03  0.25500000000E-02 0. -1.
         -2    1    1    2  502    0 -0.50218006191E+02  0.10743375904E+01  0.33486378085E+03  0.33861003245E+03  0.25500000000E-02 0. -1.
<mgrwt>
<rscale>  0 0.10967123E+03</rscale>
<asrwt>0</asrwt>
<pdfrwt beam="1">  1        2 0.73946068E-01 0.10967123E+03</pdfrwt>
<pdfrwt beam="2">  1       -2 0.96246205E-03 0.10967123E+03</pdfrwt>
<totfact> 0.12982017E+05</totfact>
</mgrwt>
</event>
<event>
 4    1  0.4834411E-002  0.6289214E+02  0.7818608E-02  0.1386080E+00
          2   -1    0    0    0  501  0.00000000000E+00  0.00000000000E+00  0.10382704983E+02  0.10382705296E+02  0.25500000000E-02 0. -1.
         -2   -1    0    0  501    0 -0.00000000000E+00 -0.00000000000E+00 -0.95240630316E+02  0.95240630350E+02  0.25500000000E-02 0. -1.
          2    1    1    2    0  502 -0.20413776806E+02 -0.71697072999E+01 -0.41051136522E+01  0.22022237644E+02  0.25500000000E-02 0. -1.
         -2    1    1    2  502    0  0.20413776806E+02  0.71697072999E+01 -0.80752811681E+02  0.83601098002E+02  0.25500000000E-02 0. -1.
<mgrwt>
<rscale>  0 0.62892142E+02</rscale>
<asrwt>0</asrwt>
<pdfrwt beam="1">  1        2 0.15973393E-02 0.62892142E+02</pdfrwt>
<pdfrwt beam="2">  1       -2 0.14652404E-01 0.62892142E+02</pdfrwt>
<totfact> 0.20343943E+05</totfact>
</mgrwt>
</event>
<event>
 4    1  0.4834411E-002  0.8882635E+02  0.7818608E-02  0.1305719E+00
          2   -1    0    0    0  501  0.00000000000E+00  0.00000000000E+00  0.35273554356E+02  0.35273554449E+02  0.25500000000E-02 0.  1.
         -2   -1    0    0  501    0 -0.00000000000E+00 -0.00000000000E+00 -0.55920938148E+02  0.55920938206E+02  0.25500000000E-02 0.  1.
          2    1    1    2    0  502  0.14712581501E+02 -0.30104944016E+02  0.19604161711E+02  0.38821268289E+02  0.25500000000E-02 0.  1.
         -2    1    1    2  502    0 -0.14712581501E+02  0.30104944016E+02 -0.40251545503E+02  0.52373224366E+02  0.25500000000E-02 0.  1.
<mgrwt>
<rscale>  0 0.88826353E+02</rscale>
<asrwt>0</asrwt>
<pdfrwt beam="1">  1        2 0.54267007E-02 0.88826353E+02</pdfrwt>
<pdfrwt beam="2">  1       -2 0.86032213E-02 0.88826353E+02</pdfrwt>
<totfact> 0.99627486E+04</totfact>
</mgrwt>
</event>
<event>
 4    1  0.4834411E-002  0.4584026E+02  0.7818608E-02  0.1469163E+00
         -2   -1    0    0  501    0 -0.00000000000E+00  0.00000000000E+00  0.11064380143E+02  0.11064380437E+02  0.25500000000E-02 0. -1.
          2   -1    0    0    0  501  0.00000000000E+00 -0.00000000000E+00 -0.47479598685E+02  0.47479598753E+02  0.25500000000E-02 0. -1.
          2    1    1    2    0  502  0.74756852173E+01 -0.21564451477E+02 -0.20892893890E+02  0.30942276234E+02  0.25500000000E-02 0. -1.
         -2    1    1    2  502    0 -0.74756852173E+01  0.21564451477E+02 -0.15522324652E+02  0.27601702956E+02  0.25500000000E-02 0. -1.
<mgrwt>
<rscale>  0 0.45840259E+02</rscale>
<asrwt>0</asrwt>
<pdfrwt beam="2">  1        2 0.73045536E-02 0.45840259E+02</pdfrwt>
<pdfrwt beam="1">  1       -2 0.17022124E-02 0.45840259E+02</pdfrwt>
<totfact> 0.63451578E+05</totfact>
</mgrwt>
</event>
<event>
 4    1  0.4834411E-002  0.4480521E+02  0.7818608E-02  0.1475561E+00
         -2   -1    0    0  501    0 -0.00000000000E+00  0.00000000000E+00  0.55572961547E+03  0.55572961547E+03  0.25500000000E-02 0.  1.
          2   -1    0    0    0  501  0.00000000000E+00 -0.00000000000E+00 -0.90309326596E+00  0.90309686608E+00  0.25500000000E-02 0.  1.
          2    1    1    2    0  502 -0.67019669114E+01  0.20046090606E+02  0.36964351432E+03  0.37024733597E+03  0.25500000000E-02 0. -1.
         -2    1    1    2  502    0  0.67019669114E+01 -0.20046090606E+02  0.18518300788E+03  0.18638537637E+03  0.25500000000E-02 0. -1.
<mgrwt>
<rscale>  0 0.44805208E+02</rscale>
<asrwt>0</asrwt>
<pdfrwt beam="2">  1        2 0.13893763E-03 0.44805208E+02</pdfrwt>
<pdfrwt beam="1">  1       -2 0.85496907E-01 0.44805208E+02</pdfrwt>
<totfact> 0.19904255E+05</totfact>
</mgrwt>
</event>
<event>
 4    1  0.4834411E-002  0.6351309E+02  0.7818608E-02  0.1383654E+00
          2   -1    0    0    0  501  0.00000000000E+00  0.00000000000E+00  0.12135462405E+02  0.12135462673E+02  0.25500000000E-02 0.  1.
         -2   -1    0    0  501    0 -0.00000000000E+00 -0.00000000000E+00 -0.83101746618E+02  0.83101746658E+02  0.25500000000E-02 0.  1.
          2    1    1    2    0  502 -0.13178436813E+02  0.15526235555E+02  0.10546795848E+01  0.20392340299E+02  0.25500000000E-02 0. -1.
         -2    1    1    2  502    0  0.13178436813E+02 -0.15526235555E+02 -0.72020963799E+02  0.74844869031E+02  0.25500000000E-02 0. -1.
<mgrwt>
<rscale>  0 0.63513090E+02</rscale>
<asrwt>0</asrwt>
<pdfrwt beam="1">  1        2 0.18669943E-02 0.63513090E+02</pdfrwt>
<pdfrwt beam="2">  1       -2 0.12784884E-01 0.63513090E+02</pdfrwt>
<totfact> 0.20539956E+05</totfact>
</mgrwt>
</event>
<event>
 4    1  0.4834411E-002  0.6757931E+02  0.7818608E-02  0.1368524E+00
          2   -1    0    0    0  501  0.00000000000E+00  0.00000000000E+00  0.11495669196E+02  0.11495669478E+02  0.25500000000E-02 0.  1.
         -2   -1    0    0  501    0 -0.00000000000E+00 -0.00000000000E+00 -0.99319199889E+02  0.99319199922E+02  0.25500000000E-02 0.  1.
          2    1    1    2    0  502 -0.59684215559E+01 -0.24967362620E+02 -0.78833477610E+01  0.26854020751E+02  0.25500000000E-02 0. -1.
         -2    1    1    2  502    0  0.59684215559E+01  0.24967362620E+02 -0.79940182932E+02  0.83960848649E+02  0.25500000000E-02 0. -1.
<mgrwt>
<rscale>  0 0.67579307E+02</rscale>
<asrwt>0</asrwt>
<pdfrwt beam="1">  1        2 0.17685646E-02 0.67579307E+02</pdfrwt>
<pdfrwt beam="2">  1       -2 0.15279876E-01 0.67579307E+02</pdfrwt>
<totfact> 0.16839814E+05</totfact>
</mgrwt>
</event>
<event>
 4    1  0.4834411E-002  0.5304216E+02  0.7818608E-02  0.1429591E+00
          2   -1    0    0    0  501  0.00000000000E+00  0.00000000000E+00  0.83078548746E+03  0.83078548746E+03  0.25500000000E-02 0. -1.
         -2   -1    0    0  501    0 -0.00000000000E+00 -0.00000000000E+00 -0.84662764101E+00  0.84663148124E+00  0.25500000000E-02 0. -1.
          2    1    1    2    0  502  0.14497289748E+02  0.21767554267E+02  0.48397303331E+03  0.48467916688E+03  0.25500000000E-02 0.  1.
         -2    1    1    2  502    0 -0.14497289748E+02 -0.21767554267E+02  0.34596582651E+03  0.34695295207E+03  0.25500000000E-02 0.  1.
<mgrwt>
<rscale>  0 0.53042155E+02</rscale>
<asrwt>0</asrwt>
<pdfrwt beam="1">  1        2 0.12781302E+00 0.53042155E+02</pdfrwt>
<pdfrwt beam="2">  1       -2 0.13025083E-03 0.53042155E+02</pdfrwt>
<totfact> 0.98192943E+05</totfact>
</mgrwt>
</event>
<event>
 4    1  0.4834411E-002  0.7534886E+02  0.7818608E-02  0.1342794E+00
         -2   -1    0    0  501    0 -0.00000000000E+00  0.00000000000E+00  0.85435936282E+01  0.85435940088E+01  0.25500000000E-02 0.  1.
          2   -1    0    0    0  501  0.00000000000E+00 -0.00000000000E+00 -0.16613179418E+03  0.16613179420E+03  0.25500000000E-02 0.  1.
          2    1    1    2    0  502 -0.13528493858E+02 -0.33844938932E+02 -0.56696380714E+02  0.67401629282E+02  0.25500000000E-02 0.  1.
         -2    1    1    2  502    0  0.13528493858E+02  0.33844938932E+02 -0.10089181984E+03  0.10727375893E+03  0.25500000000E-02 0.  1.
<mgrwt>
<rscale>  0 0.75348857E+02</rscale>
<asrwt>0</asrwt>
<pdfrwt beam="2">  1        2 0.25558735E-01 0.75348857E+02</pdfrwt>
<pdfrwt beam="1">  1       -2 0.13143992E-02 0.75348857E+02</pdfrwt>
<totfact> 0.24108184E+05</totfact>
</mgrwt>
</event>
<event>
 4    1  0.4834411E-002  0.9223398E+02  0.7818608E-02  0.1297530E+00
         -2   -1    0    0  501    0 -0.00000000000E+00  0.00000000000E+00  0.25570147404E+01  0.25570160119E+01  0.25500000000E-02 0. -1.
          2   -1    0    0    0  501  0.00000000000E+00 -0.00000000000E+00 -0.83174193495E+03  0.83174193495E+03  0.25500000000E-02 0. -1.
          2    1    1    2    0  502 -0.28866104260E+02 -0.34123131152E+02 -0.51738363769E+03  0.51931057048E+03  0.25500000000E-02 0. -1.
         -2    1    1    2  502    0  0.28866104260E+02  0.34123131152E+02 -0.31180128252E+03  0.31498838049E+03  0.25500000000E-02 0. -1.
<mgrwt>
<rscale>  0 0.92233983E+02</rscale>
<asrwt>0</asrwt>
<pdfrwt beam="2">  1        2 0.12796008E+00 0.92233983E+02</pdfrwt>
<pdfrwt beam="1">  1       -2 0.39338764E-03 0.92233983E+02</pdfrwt>
<totfact> 0.23797500E+05</totfact>
</mgrwt>
</event>
<event>
 4    1  0.4834411E-002  0.5253026E+02  0.7818608E-02  0.1432153E+00
         -2   -1    0    0  501    0 -0.00000000000E+00  0.00000000000E+00  0.30332767226E+03  0.30332767227E+03  0.25500000000E-02 0.  1.
          2   -1    0    0    0  501  0.00000000000E+00 -0.00000000000E+00 -0.22742958726E+01  0.22742973022E+01  0.25500000000E-02 0.  1.
          2    1    1    2    0  502  0.23212685102E+02 -0.11363963506E+02  0.17774469241E+03  0.17961387503E+03  0.25500000000E-02 0.  1.
         -2    1    1    2  502    0 -0.23212685102E+02  0.11363963506E+02  0.12330868397E+03  0.12598809454E+03  0.25500000000E-02 0.  1.
<mgrwt>
<rscale>  0 0.52530261E+02</rscale>
<asrwt>0</asrwt>
<pdfrwt beam="2">  1        2 0.34989157E-03 0.52530261E+02</pdfrwt>
<pdfrwt beam="1">  1       -2 0.46665825E-01 0.52530261E+02</pdfrwt>
<totfact> 0.20436981E+05</totfact>
</mgrwt>
</event>
<event>
 4    1  0.4834411E-002  0.9890080E+02  0.7818608E-02  0.1282625E+00
          2   -1    0    0    0  501  0.00000000000E+00  0.00000000000E+00  0.93383202353E+03  0.93383202353E+03  0.25500000000E-02 0. -1.
         -2   -1    0    0  501    0 -0.00000000000E+00 -0.00000000000E+00 -0.26186097700E+01  0.26186110116E+01  0.25500000000E-02 0. -1.
          2    1    1    2    0  502  0.26778717100E+02 -0.32672010078E+02  0.22221024009E+03  0.22619007657E+03  0.25500000000E-02 0.  1.
         -2    1    1    2  502    0 -0.26778717100E+02  0.32672010078E+02  0.70900317367E+03  0.71026055797E+03  0.25500000000E-02 0.  1.
<mgrwt>
<rscale>  0 0.98900804E+02</rscale>
<asrwt>0</asrwt>
<pdfrwt beam="1">  1        2 0.14366651E+00 0.98900804E+02</pdfrwt>
<pdfrwt beam="2">  1       -2 0.40286300E-03 0.98900804E+02</pdfrwt>
<totfact> 0.20071856E+05</totfact>
</mgrwt>
</event>
<event>
 4    1  0.4834411E-002  0.4289996E+02  0.7818608E-02  0.1487894E+00
         -2   -1    0    0  501    0 -0.00000000000E+00  0.00000000000E+00  0.67036103207E+01  0.67036108057E+01  0.25500000000E-02 0.  1.
          2   -1    0    0    0  501  0.00000000000E+00 -0.00000000000E+00 -0.68634904468E+02  0.68634904516E+02  0.25500000000E-02 0.  1.
          2    1    1    2    0  502  0.13378692654E+02  0.16716232017E+02 -0.33241759943E+02  0.39540314118E+02  0.25500000000E-02 0. -1.
         -2    1    1    2  502    0 -0.13378692654E+02 -0.16716232017E+02 -0.28689534205E+02  0.35798201203E+02  0.25500000000E-02 0. -1.
<mgrwt>
<rscale>  0 0.42899961E+02</rscale>
<asrwt>0</asrwt>
<pdfrwt beam="2">  1        2 0.10559216E-01 0.42899961E+02</pdfrwt>
<pdfrwt beam="1">  1       -2 0.10313248E-02 0.42899961E+02</pdfrwt>
<totfact> 0.80567438E+05</totfact>
</mgrwt>
</event>
<event>
 4    1  0.4834411E-002  0.5206157E+02  0.7818608E-02  0.1434529E+00
         -2   -1    0    0  501    0 -0.00000000000E+00  0.00000000000E+00  0.17480947829E+02  0.17480948015E+02  0.25500000000E-02 0. -1.
          2   -1    0    0    0  501  0.00000000000E+00 -0.00000000000E+00 -0.38762294232E+02  0.38762294316E+02  0.25500000000E-02 0. -1.
          2    1    1    2    0  502  0.96564226481E+01 -0.22973516751E+02 -0.18766292656E+02  0.31196197153E+02  0.25500000000E-02 0.  1.
         -2    1    1    2  502    0 -0.96564226481E+01  0.22973516751E+02 -0.25150537461E+01  0.25047045177E+02  0.25500000000E-02 0.  1.
<mgrwt>
<rscale>  0 0.52061566E+02</rscale>
<asrwt>0</asrwt>
<pdfrwt beam="2">  1        2 0.59634299E-02 0.52061566E+02</pdfrwt>
<pdfrwt beam="1">  1       -2 0.26893766E-02 0.52061566E+02</pdfrwt>
<totfact> 0.44104442E+05</totfact>
</mgrwt>
</event>
<event>
 4    1  0.4834411E-002  0.5322375E+02  0.7818608E-02  0.1428691E+00
         -2   -1    0    0  501    0 -0.00000000000E+00  0.00000000000E+00  0.15548659427E+01  0.15548680337E+01  0.25500000000E-02 0.  1.
          2   -1    0    0    0  501  0.00000000000E+00 -0.00000000000E+00 -0.45546789963E+03  0.45546789963E+03  0.25500000000E-02 0.  1.
          2    1    1    2    0  502  0.20528010856E+02  0.14329514452E+02 -0.30445596787E+03  0.30548350298E+03  0.25500000000E-02 0. -1.
         -2    1    1    2  502    0 -0.20528010856E+02 -0.14329514452E+02 -0.14945706582E+03  0.15153926469E+03  0.25500000000E-02 0. -1.
<mgrwt>
<rscale>  0 0.53223754E+02</rscale>
<asrwt>0</asrwt>
<pdfrwt beam="2">  1        2 0.70071879E-01 0.53223754E+02</pdfrwt>
<pdfrwt beam="1">  1       -2 0.23921067E-03 0.53223754E+02</pdfrwt>
<totfact> 0.83487402E+05</totfact>
</mgrwt>
</event>
<event>
 4    1  0.4834411E-002  0.5563508E+02  0.7818608E-02  0.1417119E+00
          2   -1    0    0    0  501  0.00000000000E+00  0.00000000000E+00  0.13152200802E+02  0.13152201049E+02  0.25500000000E-02 0.  1.
         -2   -1    0    0  501    0 -0.00000000000E+00 -0.00000000000E+00 -0.58835435517E+02  0.58835435572E+02  0.25500000000E-02 0.  1.
          2    1    1    2    0  502  0.21072178346E+02  0.16264939633E+02 -0.12391177123E+02  0.29361986283E+02  0.25500000000E-02 0. -1.
         -2    1    1    2  502    0 -0.21072178346E+02 -0.16264939633E+02 -0.33292057592E+02  0.42625650338E+02  0.25500000000E-02 0. -1.
<mgrwt>
<rscale>  0 0.55635078E+02</rscale>
<asrwt>0</asrwt>
<pdfrwt beam="1">  1        2 0.20234156E-02 0.55635078E+02</pdfrwt>
<pdfrwt beam="2">  1       -2 0.90516053E-02 0.55635078E+02</pdfrwt>
<totfact> 0.30580286E+05</totfact>
</mgrwt>
</event>
<event>
 4    1  0.4834411E-002  0.1196147E+03  0.7818608E-02  0.1243734E+00
          2   -1    0    0    0  501  0.00000000000E+00  0.00000000000E+00  0.25245874794E+04  0.25245874794E+04  0.25500000000E-02 0.  1.
         -2   -1    0    0  501    0 -0.00000000000E+00 -0.00000000000E+00 -0.14168322022E+01  0.14168344969E+01  0.25500000000E-02 0.  1.
          2    1    1    2    0  502  0.32748664489E+02  0.41658193914E+02  0.18472160329E+04  0.18479759069E+04  0.25500000000E-02 0. -1.
         -2    1    1    2  502    0 -0.32748664489E+02 -0.41658193914E+02  0.67595461422E+03  0.67802840695E+03  0.25500000000E-02 0. -1.
<mgrwt>
<rscale>  0 0.11961471E+03</rscale>
<asrwt>0</asrwt>
<pdfrwt beam="1">  1        2 0.38839889E+00 0.11961471E+03</pdfrwt>
<pdfrwt beam="2">  1       -2 0.21797390E-03 0.11961471E+03</pdfrwt>
<totfact> 0.70448854E+04</totfact>
</mgrwt>
</event>
<event>
 4    1  0.4834411E-002  0.4562310E+02  0.7818608E-02  0.1470489E+00
         -2   -1    0    0  501    0 -0.00000000000E+00  0.00000000000E+00  0.18270592742E+01  0.18270610537E+01  0.25500000000E-02 0. -1.
          2   -1    0    0    0  501  0.00000000000E+00 -0.00000000000E+00 -0.28481100171E+03  0.28481100172E+03  0.25500000000E-02 0. -1.
          2    1    1    2    0  502 -0.22709300392E+02  0.14043614451E+01 -0.15178162736E+03  0.15347751290E+03  0.25500000000E-02 0. -1.
         -2    1    1    2  502    0  0.22709300392E+02 -0.14043614451E+01 -0.13120231508E+03  0.13316054988E+03  0.25500000000E-02 0. -1.
<mgrwt>
<rscale>  0 0.45623101E+02</rscale>
<asrwt>0</asrwt>
<pdfrwt beam="2">  1        2 0.43817042E-01 0.45623101E+02</pdfrwt>
<pdfrwt beam="1">  1       -2 0.28108641E-03 0.45623101E+02</pdfrwt>
<totfact> 0.10423559E+06</totfact>
</mgrwt>
</event>
<event>
 4    1  0.4834411E-002  0.1128775E+03  0.7818608E-02  0.1255332E+00
          2   -1    0    0    0  501  0.00000000000E+00  0.00000000000E+00  0.19672665052E+03  0.19672665054E+03  0.25500000000E-02 0. -1.
         -2   -1    0    0  501    0 -0.00000000000E+00 -0.00000000000E+00 -0.16191659263E+02  0.16191659464E+02  0.25500000000E-02 0. -1.
          2    1    1    2    0  502  0.50304470011E+02 -0.17167674127E+02  0.12606019764E+03  0.13680804864E+03  0.25500000000E-02 0. -1.
         -2    1    1    2  502    0 -0.50304470011E+02  0.17167674127E+02  0.54474793624E+02  0.76110261364E+02  0.25500000000E-02 0. -1.
<mgrwt>
<rscale>  0 0.11287747E+03</rscale>
<asrwt>0</asrwt>
<pdfrwt beam="1">  1        2 0.30265640E-01 0.11287747E+03</pdfrwt>
<pdfrwt beam="2">  1       -2 0.24910244E-02 0.11287747E+03</pdfrwt>
<totfact> 0.85835393E+04</totfact>
</mgrwt>
</event>
<event>
 4    1  0.4834411E-002  0.4892259E+02  0.7818608E-02  0.1451241E+00
         -2   -1    0    0  501    0 -0.00000000000E+00  0.00000000000E+00  0.96984970231E+01  0.96984973583E+01  0.25500000000E-02 0.  1.
          2   -1    0    0    0  501  0.00000000000E+00 -0.00000000000E+00 -0.61695628279E+02  0.61695628332E+02  0.25500000000E-02 0.  1.
          2    1    1    2    0  502  0.56777970988E+01  0.22815397973E+02 -0.16146735211E+02  0.28521865806E+02  0.25500000000E-02 0.  1.
         -2    1    1    2  502    0 -0.56777970988E+01 -0.22815397973E+02 -0.35850396044E+02  0.42872259884E+02  0.25500000000E-02 0.  1.
<mgrwt>
<rscale>  0 0.48922587E+02</rscale>
<asrwt>0</asrwt>
<pdfrwt beam="2">  1        2 0.94916349E-02 0.48922587E+02</pdfrwt>
<pdfrwt beam="1">  1       -2 0.14920765E-02 0.48922587E+02</pdfrwt>
<totfact> 0.56549376E+05</totfact>
</mgrwt>
</event>
<event>
 4    1  0.4834411E-002  0.4385967E+02  0.7818608E-02  0.1481589E+00
          2   -1    0    0    0  501  0.00000000000E+00  0.00000000000E+00  0.25413392224E+04  0.25413392224E+04  0.25500000000E-02 0. -1.
         -2   -1    0    0  501    0 -0.00000000000E+00 -0.00000000000E+00 -0.18922933055E+00  0.18924651130E+00  0.25500000000E-02 0. -1.
          2    1    1    2    0  502 -0.46935555984E+01 -0.21421240117E+02  0.12785108001E+04  0.12786988562E+04  0.25500000000E-02 0. -1.
         -2    1    1    2  502    0  0.46935555984E+01  0.21421240117E+02  0.12626391930E+04  0.12628296127E+04  0.25500000000E-02 0. -1.
<mgrwt>
<rscale>  0 0.43859674E+02</rscale>
<asrwt>0</asrwt>
<pdfrwt beam="1">  1        2 0.39096560E+00 0.43859674E+02</pdfrwt>
<pdfrwt beam="2">  1       -2 0.29114246E-04 0.43859674E+02</pdfrwt>
<totfact> 0.94788270E+05</totfact>
</mgrwt>
</event>
<event>
 4    1  0.4834411E-002  0.5951497E+02  0.7818608E-02  0.1399879E+00
         -2   -1    0    0  501    0 -0.00000000000E+00  0.00000000000E+00  0.21808328049E+02  0.21808328198E+02  0.25500000000E-02 0.  1.
          2   -1    0    0    0  501  0.00000000000E+00 -0.00000000000E+00 -0.40604117330E+02  0.40604117410E+02  0.25500000000E-02 0.  1.
          2    1    1    2    0  502 -0.56708831295E+00  0.26936362960E+02 -0.22647008375E+02  0.35196253118E+02  0.25500000000E-02 0.  1.
         -2    1    1    2  502    0  0.56708831295E+00 -0.26936362960E+02  0.38512190946E+01  0.27216192491E+02  0.25500000000E-02 0.  1.
<mgrwt>
<rscale>  0 0.59514970E+02</rscale>
<asrwt>0</asrwt>
<pdfrwt beam="2">  1        2 0.62467873E-02 0.59514970E+02</pdfrwt>
<pdfrwt beam="1">  1       -2 0.33551274E-02 0.59514970E+02</pdfrwt>
<totfact> 0.31250439E+05</totfact>
</mgrwt>
</event>
<event>
 4    1  0.4834411E-002  0.5059747E+02  0.7818608E-02  0.1442145E+00
          2   -1    0    0    0  501  0.00000000000E+00  0.00000000000E+00  0.30539616620E+03  0.30539616621E+03  0.25500000000E-02 0. -1.
         -2   -1    0    0  501    0 -0.00000000000E+00 -0.00000000000E+00 -0.20957228920E+01  0.20957244434E+01  0.25500000000E-02 0. -1.
          2    1    1    2    0  502 -0.10881042866E+02 -0.21322359630E+02  0.10191129293E+03  0.10468501205E+03  0.25500000000E-02 0.  1.
         -2    1    1    2  502    0  0.10881042866E+02  0.21322359630E+02  0.20138915038E+03  0.20280687861E+03  0.25500000000E-02 0.  1.
<mgrwt>
<rscale>  0 0.50597469E+02</rscale>
<asrwt>0</asrwt>
<pdfrwt beam="1">  1        2 0.46984022E-01 0.50597469E+02</pdfrwt>
<pdfrwt beam="2">  1       -2 0.32241905E-03 0.50597469E+02</pdfrwt>
<totfact> 0.82641343E+05</totfact>
</mgrwt>
</event>
<event>
 4    1  0.4834411E-002  0.6785678E+02  0.7818608E-02  0.1367537E+00
         -2   -1    0    0  501    0 -0.00000000000E+00  0.00000000000E+00  0.63715707053E+02  0.63715707104E+02  0.25500000000E-02 0. -1.
          2   -1    0    0    0  501  0.00000000000E+00 -0.00000000000E+00 -0.18066750304E+02  0.18066750484E+02  0.25500000000E-02 0. -1.
          2    1    1    2    0  502 -0.31035147380E+02  0.40742261812E+01  0.38601195740E+02  0.49697404469E+02  0.25500000000E-02 0. -1.
         -2    1    1    2  502    0  0.31035147380E+02 -0.40742261812E+01  0.70477610088E+01  0.32085053119E+02  0.25500000000E-02 0. -1.
<mgrwt>
<rscale>  0 0.67856784E+02</rscale>
<asrwt>0</asrwt>
<pdfrwt beam="2">  1        2 0.27795001E-02 0.67856784E+02</pdfrwt>
<pdfrwt beam="1">  1       -2 0.98024164E-02 0.67856784E+02</pdfrwt>
<totfact> 0.18557132E+05</totfact>
</mgrwt>
</event>
<event>
 4    1  0.4834411E-002  0.4645496E+02  0.7818608E-02  0.1465458E+00
          2   -1    0    0    0  501  0.00000000000E+00  0.00000000000E+00  0.42393880523E+03  0.42393880524E+03  0.25500000000E-02 0. -1.
         -2   -1    0    0  501    0 -0.00000000000E+00 -0.00000000000E+00 -0.12726256361E+01  0.12726281909E+01  0.25500000000E-02 0. -1.
          2    1    1    2    0  502  0.51223036528E+01  0.20335757307E+02  0.30274365605E+03  0.30346911261E+03  0.25500000000E-02 0.  1.
         -2    1    1    2  502    0 -0.51223036528E+01 -0.20335757307E+02  0.11992252354E+03  0.12174232082E+03  0.25500000000E-02 0.  1.
<mgrwt>
<rscale>  0 0.46454965E+02</rscale>
<asrwt>0</asrwt>
<pdfrwt beam="1">  1        2 0.65221267E-01 0.46454965E+02</pdfrwt>
<pdfrwt beam="2">  1       -2 0.19578902E-03 0.46454965E+02</pdfrwt>
<totfact> 0.11420576E+06</totfact>
</mgrwt>
</event>
<event>
 4    1  0.4834411E-002  0.6829023E+02  0.7818608E-02  0.1366006E+00
         -2   -1    0    0  501    0 -0.00000000000E+00  0.00000000000E+00  0.18948352501E+02  0.18948352672E+02  0.25500000000E-02 0. -1.
          2   -1    0    0    0  501  0.00000000000E+00 -0.00000000000E+00 -0.61529825849E+02  0.61529825901E+02  0.25500000000E-02 0. -1.
          2    1    1    2    0  502 -0.23314275563E+02  0.17795328369E+02 -0.68734852623E+00  0.29337716532E+02  0.25500000000E-02 0. -1.
         -2    1    1    2  502    0  0.23314275563E+02 -0.17795328369E+02 -0.41894124821E+02  0.51140462042E+02  0.25500000000E-02 0. -1.
<mgrwt>
<rscale>  0 0.68290229E+02</rscale>
<asrwt>0</asrwt>
<pdfrwt beam="2">  1        2 0.94661270E-02 0.68290229E+02</pdfrwt>
<pdfrwt beam="1">  1       -2 0.29151312E-02 0.68290229E+02</pdfrwt>
<totfact> 0.23622969E+05</totfact>
</mgrwt>
</event>
<event>
 4    1  0.4834411E-002  0.6904609E+02  0.7818608E-02  0.1363367E+00
          2   -1    0    0    0  501  0.00000000000E+00  0.00000000000E+00  0.87728239607E+03  0.87728239608E+03  0.25500000000E-02 0.  1.
         -2   -1    0    0  501    0 -0.00000000000E+00 -0.00000000000E+00 -0.13585586238E+01  0.13585610170E+01  0.25500000000E-02 0.  1.
          2    1    1    2    0  502  0.15757339659E+02  0.27652338937E+02  0.26775724963E+03  0.26964215237E+03  0.25500000000E-02 0. -1.
         -2    1    1    2  502    0 -0.15757339659E+02 -0.27652338937E+02  0.60816658782E+03  0.60899880472E+03  0.25500000000E-02 0. -1.
<mgrwt>
<rscale>  0 0.69046089E+02</rscale>
<asrwt>0</asrwt>
<pdfrwt beam="1">  1        2 0.13496657E+00 0.69046089E+02</pdfrwt>
<pdfrwt beam="2">  1       -2 0.20900913E-03 0.69046089E+02</pdfrwt>
<totfact> 0.50882832E+05</totfact>
</mgrwt>
</event>
<event>
 4    1  0.4834411E-002  0.9212164E+02  0.7818608E-02  0.1297794E+00
          2   -1    0    0    0  501  0.00000000000E+00  0.00000000000E+00  0.59990288839E+03  0.59990288839E+03  0.25500000000E-02 0. -1.
         -2   -1    0    0  501    0 -0.00000000000E+00 -0.00000000000E+00 -0.35365702436E+01  0.35365711629E+01  0.25500000000E-02 0. -1.
          2    1    1    2    0  502  0.38809349363E+02  0.21347011946E+02  0.21539336414E+03  0.21990034524E+03  0.25500000000E-02 0.  1.
         -2    1    1    2  502    0 -0.38809349363E+02 -0.21347011946E+02  0.38097295401E+03  0.38353911431E+03  0.25500000000E-02 0.  1.
<mgrwt>
<rscale>  0 0.92121637E+02</rscale>
<asrwt>0</asrwt>
<pdfrwt beam="1">  1        2 0.92292760E-01 0.92121637E+02</pdfrwt>
<pdfrwt beam="2">  1       -2 0.54408776E-03 0.92121637E+02</pdfrwt>
<totfact> 0.22171397E+05</totfact>
</mgrwt>
</event>
<event>
 4    1  0.4834411E-002  0.4579288E+02  0.7818608E-02  0.1469452E+00
          2   -1    0    0    0  501  0.00000000000E+00  0.00000000000E+00  0.14834479399E+02  0.14834479619E+02  0.25500000000E-02 0.  1.
         -2   -1    0    0  501    0 -0.00000000000E+00 -0.00000000000E+00 -0.35339757501E+02  0.35339757593E+02  0.25500000000E-02 0.  1.
          2    1    1    2    0  502  0.18673969092E+02 -0.12412060122E+02 -0.51756712982E+01  0.23012256257E+02  0.25500000000E-02 0. -1.
         -2    1    1    2  502    0 -0.18673969092E+02  0.12412060122E+02 -0.15329606803E+02  0.27161980954E+02  0.25500000000E-02 0. -1.
<mgrwt>
<rscale>  0 0.45792878E+02</rscale>
<asrwt>0</asrwt>
<pdfrwt beam="1">  1        2 0.22822276E-02 0.45792878E+02</pdfrwt>
<pdfrwt beam="2">  1       -2 0.54368858E-02 0.45792878E+02</pdfrwt>
<totfact> 0.53161333E+05</totfact>
</mgrwt>
</event>
<event>
 4    1  0.4834411E-002  0.8139786E+02  0.7818608E-02  0.1325131E+00
          2   -1    0    0    0  501  0.00000000000E+00  0.00000000000E+00  0.48137327422E+02  0.48137327490E+02  0.25500000000E-02 0.  1.
         -2   -1    0    0  501    0 -0.00000000000E+00 -0.00000000000E+00 -0.34409944357E+02  0.34409944452E+02  0.25500000000E-02 0.  1.
          2    1    1    2    0  502 -0.37093187855E+02  0.74111904808E+01 -0.83674608739E+01  0.38740737443E+02  0.25500000000E-02 0.  1.
         -2    1    1    2  502    0  0.37093187855E+02 -0.74111904808E+01  0.22094843939E+02  0.43806534499E+02  0.25500000000E-02 0.  1.
<mgrwt>
<rscale>  0 0.81397857E+02</rscale>
<asrwt>0</asrwt>
<pdfrwt beam="1">  1        2 0.74057426E-02 0.81397857E+02</pdfrwt>
<pdfrwt beam="2">  1       -2 0.52938377E-02 0.81397857E+02</pdfrwt>
<totfact> 0.13790650E+05</totfact>
</mgrwt>
</event>
<event>
 4    1  0.4834411E-002  0.4324632E+02  0.7818608E-02  0.1485596E+00
          2   -1    0    0    0  501  0.00000000000E+00  0.00000000000E+00  0.67874114804E+02  0.67874114852E+02  0.25500000000E-02 0. -1.
         -2   -1    0    0  501    0 -0.00000000000E+00 -0.00000000000E+00 -0.68886514981E+01  0.68886519700E+01  0.25500000000E-02 0. -1.
          2    1    1    2    0  502  0.20884162140E+02  0.93387328258E+00  0.40046534679E+02  0.45174608952E+02  0.25500000000E-02 0.  1.
         -2    1    1    2  502    0 -0.20884162140E+02 -0.93387328258E+00  0.20938928626E+02  0.29588157870E+02  0.25500000000E-02 0.  1.
<mgrwt>
<rscale>  0 0.43246324E+02</rscale>
<asrwt>0</asrwt>
<pdfrwt beam="1">  1        2 0.10442172E-01 0.43246324E+02</pdfrwt>
<pdfrwt beam="2">  1       -2 0.10597926E-02 0.43246324E+02</pdfrwt>
<totfact> 0.78777639E+05</totfact>
</mgrwt>
</event>
<event>
 4    1  0.4834411E-002  0.8383677E+02  0.7818608E-02  0.1318503E+00
         -2   -1    0    0  501    0 -0.00000000000E+00  0.00000000000E+00  0.11228481133E+02  0.11228481423E+02  0.25500000000E-02 0. -1.
          2   -1    0    0    0  501  0.00000000000E+00 -0.00000000000E+00 -0.15649052093E+03  0.15649052096E+03  0.25500000000E-02 0. -1.
          2    1    1    2    0  502  0.91873784271E+01  0.24369724435E+02 -0.13834082662E+03  0.14077100450E+03  0.25500000000E-02 0. -1.
         -2    1    1    2  502    0 -0.91873784271E+01 -0.24369724435E+02 -0.69212131845E+01  0.26947997882E+02  0.25500000000E-02 0. -1.
<mgrwt>
<rscale>  0 0.83836767E+02</rscale>
<asrwt>0</asrwt>
<pdfrwt beam="2">  1        2 0.24075463E-01 0.83836767E+02</pdfrwt>
<pdfrwt beam="1">  1       -2 0.17274588E-02 0.83836767E+02</pdfrwt>
<totfact> 0.17784317E+05</totfact>
</mgrwt>
</event>
<event>
 4    1  0.4834411E-002  0.5990679E+02  0.7818608E-02  0.1398223E+00
          2   -1    0    0    0  501  0.00000000000E+00  0.00000000000E+00  0.12663369627E+04  0.12663369627E+04  0.25500000000E-02 0. -1.
         -2   -1    0    0  501    0 -0.00000000000E+00 -0.00000000000E+00 -0.70850249370E+00  0.70850708259E+00  0.25500000000E-02 0. -1.
          2    1    1    2    0  502  0.29765966687E+02  0.27960755622E+01  0.67166970413E+03  0.67233475461E+03  0.25500000000E-02 0.  1.
         -2    1    1    2  502    0 -0.29765966687E+02 -0.27960755622E+01  0.59395875608E+03  0.59471071518E+03  0.25500000000E-02 0.  1.
<mgrwt>
<rscale>  0 0.59906788E+02</rscale>
<asrwt>0</asrwt>
<pdfrwt beam="1">  1        2 0.19482204E+00 0.59906788E+02</pdfrwt>
<pdfrwt beam="2">  1       -2 0.10900020E-03 0.59906788E+02</pdfrwt>
<totfact> 0.72871256E+05</totfact>
</mgrwt>
</event>
<event>
 4    1  0.4834411E-002  0.5826033E+02  0.7818608E-02  0.1405281E+00
          2   -1    0    0    0  501  0.00000000000E+00  0.00000000000E+00  0.32478666833E+01  0.32478676844E+01  0.25500000000E-02 0. -1.
         -2   -1    0    0  501    0 -0.00000000000E+00 -0.00000000000E+00 -0.26126885426E+03  0.26126885427E+03  0.25500000000E-02 0. -1.
          2    1    1    2    0  502 -0.13692636861E+02 -0.20425686818E+02 -0.19991257309E+03  0.20141929866E+03  0.25500000000E-02 0.  1.
         -2    1    1    2  502    0  0.13692636861E+02  0.20425686818E+02 -0.58108414481E+02  0.63097423293E+02  0.25500000000E-02 0.  1.
<mgrwt>
<rscale>  0 0.58260331E+02</rscale>
<asrwt>0</asrwt>
<pdfrwt beam="1">  1        2 0.49967208E-03 0.58260331E+02</pdfrwt>
<pdfrwt beam="2">  1       -2 0.40195192E-01 0.58260331E+02</pdfrwt>
<totfact> 0.17098643E+05</totfact>
</mgrwt>
</event>
<event>
 4    1  0.4834411E-002  0.5467398E+02  0.7818608E-02  0.1421647E+00
         -2   -1    0    0  501    0 -0.00000000000E+00  0.00000000000E+00  0.12910847549E+03  0.12910847552E+03  0.25500000000E-02 0. -1.
          2   -1    0    0    0  501  0.00000000000E+00 -0.00000000000E+00 -0.57882416142E+01  0.57882421759E+01  0.25500000000E-02 0. -1.
          2    1    1    2    0  502  0.21350310935E+02 -0.30329104736E+01  0.20206900331E+02  0.29552548967E+02  0.25500000000E-02 0. -1.
         -2    1    1    2  502    0 -0.21350310935E+02  0.30329104736E+01  0.10311333355E+03  0.10534416873E+03  0.25500000000E-02 0. -1.
<mgrwt>
<rscale>  0 0.54673982E+02</rscale>
<asrwt>0</asrwt>
<pdfrwt beam="2">  1        2 0.89049879E-03 0.54673982E+02</pdfrwt>
<pdfrwt beam="1">  1       -2 0.19862842E-01 0.54673982E+02</pdfrwt>
<totfact> 0.26414118E+05</totfact>
</mgrwt>
</event>
<event>
 4    1  0.4834411E-002  0.4052924E+02  0.7818608E-02  0.1504353E+00
         -2   -1    0    0  501    0 -0.00000000000E+00  0.00000000000E+00  0.44945875641E+03  0.44945875642E+03  0.25500000000E-02 0. -1.
          2   -1    0    0    0  501  0.00000000000E+00 -0.00000000000E+00 -0.91366337184E+00  0.91366693031E+00  0.25500000000E-02 0. -1.
          2    1    1    2    0  502  0.37087324905E+00 -0.20037910949E+02  0.19093684746E+03  0.19198576809E+03  0.25500000000E-02 0. -1.
         -2    1    1    2  502    0 -0.37087324905E+00  0.20037910949E+02  0.25760824557E+03  0.25838665526E+03  0.25500000000E-02 0. -1.
<mgrwt>
<rscale>  0 0.40529239E+02</rscale>
<asrwt>0</asrwt>
<pdfrwt beam="2">  1        2 0.14056430E-03 0.40529239E+02</pdfrwt>
<pdfrwt beam="1">  1       -2 0.69147290E-01 0.40529239E+02</pdfrwt>
<totfact> 0.29899837E+05</totfact>
</mgrwt>
</event>
<event>
 4    1  0.4834411E-002  0.5393073E+02  0.7818608E-02  0.1425224E+00
         -2   -1    0    0  501    0 -0.00000000000E+00  0.00000000000E+00  0.10582182175E+01  0.10582212898E+01  0.25500000000E-02 0.  1.
          2   -1    0    0    0  501  0.00000000000E+00 -0.00000000000E+00 -0.68712656752E+03  0.68712656752E+03  0.25500000000E-02 0.  1.
          2    1    1    2    0  502  0.20147107368E+02  0.15307321323E+02 -0.22407283409E+03  0.22549690687E+03  0.25500000000E-02 0.  1.
         -2    1    1    2  502    0 -0.20147107368E+02 -0.15307321323E+02 -0.46199551521E+03  0.46268788194E+03  0.25500000000E-02 0.  1.
<mgrwt>
<rscale>  0 0.53930730E+02</rscale>
<asrwt>0</asrwt>
<pdfrwt beam="2">  1        2 0.10571142E+00 0.53930730E+02</pdfrwt>
<pdfrwt beam="1">  1       -2 0.16280359E-03 0.53930730E+02</pdfrwt>
<totfact> 0.90827434E+05</totfact>
</mgrwt>
</event>
<event>
 4    1  0.4834411E-002  0.8070268E+02  0.7818608E-02  0.1327069E+00
          2   -1    0    0    0  501  0.00000000000E+00  0.00000000000E+00  0.20648639666E+04  0.20648639666E+04  0.25500000000E-02 0. -1.
         -2   -1    0    0  501    0 -0.00000000000E+00 -0.00000000000E+00 -0.78853936076E+00  0.78854348388E+00  0.25500000000E-02 0. -1.
          2    1    1    2    0  502 -0.87371959966E+01  0.29417544100E+02  0.36139741460E+03  0.36269797598E+03  0.25500000000E-02 0.  1.
         -2    1    1    2  502    0  0.87371959966E+01 -0.29417544100E+02  0.17026780126E+04  0.17029545341E+04  0.25500000000E-02 0.  1.
<mgrwt>
<rscale>  0 0.80702683E+02</rscale>
<asrwt>0</asrwt>
<pdfrwt beam="1">  1        2 0.31767102E+00 0.80702683E+02</pdfrwt>
<pdfrwt beam="2">  1       -2 0.12131420E-03 0.80702683E+02</pdfrwt>
<totfact> 0.26297938E+05</totfact>
</mgrwt>
</event>
<event>
 4    1  0.4834411E-002  0.4204944E+02  0.7818608E-02  0.1493649E+00
          2   -1    0    0    0  501  0.00000000000E+00  0.00000000000E+00  0.26766761457E+01  0.26766773603E+01  0.25500000000E-02 0. -1.
         -2   -1    0    0  501    0 -0.00000000000E+00 -0.00000000000E+00 -0.16514467513E+03  0.16514467515E+03  0.25500000000E-02 0. -1.
          2    1    1    2    0  502 -0.13162412408E+01 -0.20441339928E+02 -0.10014754284E+03  0.10222089421E+03  0.25500000000E-02 0.  1.
         -2    1    1    2  502    0  0.13162412408E+01  0.20441339928E+02 -0.62320456144E+02  0.65600458303E+02  0.25500000000E-02 0.  1.
<mgrwt>
<rscale>  0 0.42049443E+02</rscale>
<asrwt>0</asrwt>
<pdfrwt beam="1">  1        2 0.41179655E-03 0.42049443E+02</pdfrwt>
<pdfrwt beam="2">  1       -2 0.25406865E-01 0.42049443E+02</pdfrwt>
<totfact> 0.46258939E+05</totfact>
</mgrwt>
</event>
<event>
 4    1  0.4834411E-002  0.5944969E+02  0.7818608E-02  0.1400156E+00
          2   -1    0    0    0  501  0.00000000000E+00  0.00000000000E+00  0.14830189414E+03  0.14830189416E+03  0.25500000000E-02 0.  1.
         -2   -1    0    0  501    0 -0.00000000000E+00 -0.00000000000E+00 -0.59578896336E+01  0.59578901793E+01  0.25500000000E-02 0.  1.
          2    1    1    2    0  502 -0.26566581471E+02 -0.61822106538E+01  0.10182612342E+03  0.10541613916E+03  0.25500000000E-02 0. -1.
         -2    1    1    2  502    0  0.26566581471E+02  0.61822106538E+01  0.40517881086E+02  0.48843645173E+02  0.25500000000E-02 0. -1.
<mgrwt>
<rscale>  0 0.59449688E+02</rscale>
<asrwt>0</asrwt>
<pdfrwt beam="1">  1        2 0.22815675E-01 0.59449688E+02</pdfrwt>
<pdfrwt beam="2">  1       -2 0.91659851E-03 0.59449688E+02</pdfrwt>
<totfact> 0.43092928E+05</totfact>
</mgrwt>
</event>
<event>
 4    1  0.4834411E-002  0.2212448E+03  0.7818608E-02  0.1132958E+00
         -2   -1    0    0  501    0 -0.00000000000E+00  0.00000000000E+00  0.20691917422E+02  0.20691917579E+02  0.25500000000E-02 0.  1.
          2   -1    0    0    0  501  0.00000000000E+00 -0.00000000000E+00 -0.59140566816E+03  0.59140566816E+03  0.25500000000E-02 0.  1.
          2    1    1    2    0  502 -0.42773820380E+02 -0.90575652876E+02 -0.41523337180E+03  0.42714435694E+03  0.25500000000E-02 0.  1.
         -2    1    1    2  502    0  0.42773820380E+02  0.90575652876E+02 -0.15548037894E+03  0.18495322880E+03  0.25500000000E-02 0.  1.
<mgrwt>
<rscale>  0 0.22124482E+03</rscale>
<asrwt>0</asrwt>
<pdfrwt beam="2">  1        2 0.90985475E-01 0.22124482E+03</pdfrwt>
<pdfrwt beam="1">  1       -2 0.31833724E-02 0.22124482E+03</pdfrwt>
<totfact> 0.19494565E+04</totfact>
</mgrwt>
</event>
<event>
 4    1  0.4834411E-002  0.4431836E+02  0.7818608E-02  0.1478642E+00
         -2   -1    0    0  501    0 -0.00000000000E+00  0.00000000000E+00  0.44719451739E+00  0.44720178766E+00  0.25500000000E-02 0.  1.
          2   -1    0    0    0  501  0.00000000000E+00 -0.00000000000E+00 -0.10980128680E+04  0.10980128680E+04  0.25500000000E-02 0.  1.
          2    1    1    2    0  502  0.11605938586E+02 -0.18853521095E+02 -0.57198431871E+03  0.57241262558E+03  0.25500000000E-02 0.  1.
         -2    1    1    2  502    0 -0.11605938586E+02  0.18853521095E+02 -0.52558135473E+03  0.52604744417E+03  0.25500000000E-02 0.  1.
<mgrwt>
<rscale>  0 0.44318363E+02</rscale>
<asrwt>0</asrwt>
<pdfrwt beam="2">  1        2 0.16892290E+00 0.44318363E+02</pdfrwt>
<pdfrwt beam="1">  1       -2 0.68800595E-04 0.44318363E+02</pdfrwt>
<totfact> 0.15575651E+06</totfact>
</mgrwt>
</event>
<event>
 4    1  0.4834411E-002  0.1530424E+03  0.7818608E-02  0.1196784E+00
          2   -1    0    0    0  501  0.00000000000E+00  0.00000000000E+00  0.46413887335E+02  0.46413887405E+02  0.25500000000E-02 0. -1.
         -2   -1    0    0  501    0 -0.00000000000E+00 -0.00000000000E+00 -0.12615822859E+03  0.12615822861E+03  0.25500000000E-02 0. -1.
          2    1    1    2    0  502  0.65515681569E+02  0.68443642534E+01 -0.83781593362E+02  0.10657628839E+03  0.25500000000E-02 0.  1.
         -2    1    1    2  502    0 -0.65515681569E+02 -0.68443642534E+01  0.40372521110E+01  0.65995827630E+02  0.25500000000E-02 0.  1.
<mgrwt>
<rscale>  0 0.15304240E+03</rscale>
<asrwt>0</asrwt>
<pdfrwt beam="1">  1        2 0.71405981E-02 0.15304240E+03</pdfrwt>
<pdfrwt beam="2">  1       -2 0.19408958E-01 0.15304240E+03</pdfrwt>
<totfact> 0.20395720E+04</totfact>
</mgrwt>
</event>
<event>
 4    1  0.4834411E-002  0.4827621E+02  0.7818608E-02  0.1454867E+00
          2   -1    0    0    0  501  0.00000000000E+00  0.00000000000E+00  0.84221600529E+01  0.84221604389E+01  0.25500000000E-02 0.  1.
         -2   -1    0    0  501    0 -0.00000000000E+00 -0.00000000000E+00 -0.69180350170E+02  0.69180350217E+02  0.25500000000E-02 0.  1.
          2    1    1    2    0  502  0.21552196617E+02  0.10857326519E+02 -0.31213236518E+02  0.39454338907E+02  0.25500000000E-02 0.  1.
         -2    1    1    2  502    0 -0.21552196617E+02 -0.10857326519E+02 -0.29544953599E+02  0.38148171749E+02  0.25500000000E-02 0.  1.
<mgrwt>
<rscale>  0 0.48276205E+02</rscale>
<asrwt>0</asrwt>
<pdfrwt beam="1">  1        2 0.12957170E-02 0.48276205E+02</pdfrwt>
<pdfrwt beam="2">  1       -2 0.10643130E-01 0.48276205E+02</pdfrwt>
<totfact> 0.41757371E+05</totfact>
</mgrwt>
</event>
<event>
 4    1  0.4834411E-002  0.5345126E+02  0.7818608E-02  0.1427568E+00
          2   -1    0    0    0  501  0.00000000000E+00  0.00000000000E+00  0.15241261113E+02  0.15241261326E+02  0.25500000000E-02 0. -1.
         -2   -1    0    0  501    0 -0.00000000000E+00 -0.00000000000E+00 -0.46863537284E+02  0.46863537353E+02  0.25500000000E-02 0. -1.
          2    1    1    2    0  502  0.15618931671E+02  0.20861960600E+02 -0.89287335673E+01  0.27548043782E+02  0.25500000000E-02 0.  1.
         -2    1    1    2  502    0 -0.15618931671E+02 -0.20861960600E+02 -0.22693542604E+02  0.34556754897E+02  0.25500000000E-02 0.  1.
<mgrwt>
<rscale>  0 0.53451264E+02</rscale>
<asrwt>0</asrwt>
<pdfrwt beam="1">  1        2 0.23448094E-02 0.53451264E+02</pdfrwt>
<pdfrwt beam="2">  1       -2 0.72097749E-02 0.53451264E+02</pdfrwt>
<totfact> 0.35133107E+05</totfact>
</mgrwt>
</event>
<event>
 4    1  0.4834411E-002  0.5290520E+02  0.7818608E-02  0.1430273E+00
         -2   -1    0    0  501    0 -0.00000000000E+00  0.00000000000E+00  0.22853656673E+02  0.22853656815E+02  0.25500000000E-02 0.  1.
          2   -1    0    0    0  501  0.00000000000E+00 -0.00000000000E+00 -0.30618291729E+02  0.30618291835E+02  0.25500000000E-02 0.  1.
          2    1    1    2    0  502  0.21403571112E+02 -0.14502867323E+02 -0.95363409399E+01  0.27556992252E+02  0.25500000000E-02 0. -1.
         -2    1    1    2  502    0 -0.21403571112E+02  0.14502867323E+02  0.17717058841E+01  0.25914956399E+02  0.25500000000E-02 0. -1.
<mgrwt>
<rscale>  0 0.52905196E+02</rscale>
<asrwt>0</asrwt>
<pdfrwt beam="2">  1        2 0.47105064E-02 0.52905196E+02</pdfrwt>
<pdfrwt beam="1">  1       -2 0.35159472E-02 0.52905196E+02</pdfrwt>
<totfact> 0.40601849E+05</totfact>
</mgrwt>
</event>
<event>
 4    1  0.4834411E-002  0.5866245E+02  0.7818608E-02  0.1403532E+00
         -2   -1    0    0  501    0 -0.00000000000E+00  0.00000000000E+00  0.17268905197E+03  0.17268905199E+03  0.25500000000E-02 0. -1.
          2   -1    0    0    0  501  0.00000000000E+00 -0.00000000000E+00 -0.49819057274E+01  0.49819063800E+01  0.25500000000E-02 0. -1.
          2    1    1    2    0  502  0.20018998402E+02 -0.23652123649E+01  0.14838451326E+03  0.14974751520E+03  0.25500000000E-02 0. -1.
         -2    1    1    2  502    0 -0.20018998402E+02  0.23652123649E+01  0.19322632982E+02  0.27923443169E+02  0.25500000000E-02 0. -1.
<mgrwt>
<rscale>  0 0.58662446E+02</rscale>
<asrwt>0</asrwt>
<pdfrwt beam="2">  1        2 0.76644703E-03 0.58662446E+02</pdfrwt>
<pdfrwt beam="1">  1       -2 0.26567548E-01 0.58662446E+02</pdfrwt>
<totfact> 0.20116847E+05</totfact>
</mgrwt>
</event>
<event>
 4    1  0.4834411E-002  0.5038339E+02  0.7818608E-02  0.1443285E+00
          2   -1    0    0    0  501  0.00000000000E+00  0.00000000000E+00  0.40962402027E+02  0.40962402107E+02  0.25500000000E-02 0.  1.
         -2   -1    0    0  501    0 -0.00000000000E+00 -0.00000000000E+00 -0.15492779539E+02  0.15492779749E+02  0.25500000000E-02 0.  1.
          2    1    1    2    0  502  0.15098655173E+02  0.18993513647E+02  0.51435181304E+01  0.24802796898E+02  0.25500000000E-02 0. -1.
         -2    1    1    2  502    0 -0.15098655173E+02 -0.18993513647E+02  0.20326104358E+02  0.31652384958E+02  0.25500000000E-02 0. -1.
<mgrwt>
<rscale>  0 0.50383389E+02</rscale>
<asrwt>0</asrwt>
<pdfrwt beam="1">  1        2 0.63019080E-02 0.50383389E+02</pdfrwt>
<pdfrwt beam="2">  1       -2 0.23835046E-02 0.50383389E+02</pdfrwt>
<totfact> 0.48495463E+05</totfact>
</mgrwt>
</event>
<event>
 4    1  0.4834411E-002  0.9743077E+02  0.7818608E-02  0.1285793E+00
         -2   -1    0    0  501    0 -0.00000000000E+00  0.00000000000E+00  0.18684470762E+01  0.18684488162E+01  0.25500000000E-02 0.  1.
          2   -1    0    0    0  501  0.00000000000E+00 -0.00000000000E+00 -0.12701390360E+04  0.12701390360E+04  0.25500000000E-02 0.  1.
          2    1    1    2    0  502 -0.28342444294E+02  0.33585466598E+02 -0.35968675669E+03  0.36236147789E+03  0.25500000000E-02 0.  1.
         -2    1    1    2  502    0  0.28342444294E+02 -0.33585466598E+02 -0.90858383221E+03  0.90964600690E+03  0.25500000000E-02 0.  1.
<mgrwt>
<rscale>  0 0.97430769E+02</rscale>
<asrwt>0</asrwt>
<pdfrwt beam="2">  1        2 0.19540532E+00 0.97430769E+02</pdfrwt>
<pdfrwt beam="1">  1       -2 0.28745455E-03 0.97430769E+02</pdfrwt>
<totfact> 0.20707285E+05</totfact>
</mgrwt>
</event>
<event>
 4    1  0.4834411E-002  0.7069661E+02  0.7818608E-02  0.1357740E+00
         -2   -1    0    0  501    0 -0.00000000000E+00  0.00000000000E+00  0.12617369091E+01  0.12617394859E+01  0.25500000000E-02 0.  1.
          2   -1    0    0    0  501  0.00000000000E+00 -0.00000000000E+00 -0.99030271898E+03  0.99030271898E+03  0.25500000000E-02 0.  1.
          2    1    1    2    0  502 -0.34755254169E+02 -0.45365170785E+01 -0.55878647498E+03  0.55988465983E+03  0.25500000000E-02 0. -1.
         -2    1    1    2  502    0  0.34755254169E+02  0.45365170785E+01 -0.43025450708E+03  0.43167979864E+03  0.25500000000E-02 0. -1.
<mgrwt>
<rscale>  0 0.70696613E+02</rscale>
<asrwt>0</asrwt>
<pdfrwt beam="2">  1        2 0.15235364E+00 0.70696613E+02</pdfrwt>
<pdfrwt beam="1">  1       -2 0.19411436E-03 0.70696613E+02</pdfrwt>
<totfact> 0.48410001E+05</totfact>
</mgrwt>
</event>
<event>
 4    1  0.4834411E-002  0.5397640E+02  0.7818608E-02  0.1425002E+00
         -2   -1    0    0  501    0 -0.00000000000E+00  0.00000000000E+00  0.19668961388E+03  0.19668961390E+03  0.25500000000E-02 0. -1.
          2   -1    0    0    0  501  0.00000000000E+00 -0.00000000000E+00 -0.37031081019E+01  0.37031089799E+01  0.25500000000E-02 0. -1.
          2    1    1    2    0  502 -0.91958896790E+01 -0.21789603384E+02  0.14475871926E+03  0.14667800793E+03  0.25500000000E-02 0. -1.
         -2    1    1    2  502    0  0.91958896790E+01  0.21789603384E+02  0.48227786518E+02  0.53714714944E+02  0.25500000000E-02 0. -1.
<mgrwt>
<rscale>  0 0.53976402E+02</rscale>
<asrwt>0</asrwt>
<pdfrwt beam="2">  1        2 0.56970899E-03 0.53976402E+02</pdfrwt>
<pdfrwt beam="1">  1       -2 0.30259942E-01 0.53976402E+02</pdfrwt>
<totfact> 0.23507108E+05</totfact>
</mgrwt>
</event>
<event>
 4    1  0.4834411E-002  0.4190974E+02  0.7818608E-02  0.1494610E+00
          2   -1    0    0    0  501  0.00000000000E+00  0.00000000000E+00  0.17496944280E+03  0.17496944282E+03  0.25500000000E-02 0.  1.
         -2   -1    0    0  501    0 -0.00000000000E+00 -0.00000000000E+00 -0.25096178969E+01  0.25096191925E+01  0.25500000000E-02 0.  1.
          2    1    1    2    0  502  0.19483585289E+02  0.64394508187E+01  0.68248275801E+02  0.71266428134E+02  0.25500000000E-02 0.  1.
         -2    1    1    2  502    0 -0.19483585289E+02 -0.64394508187E+01  0.10421154910E+03  0.10621263388E+03  0.25500000000E-02 0.  1.
<mgrwt>
<rscale>  0 0.41909739E+02</rscale>
<asrwt>0</asrwt>
<pdfrwt beam="1">  1        2 0.26918378E-01 0.41909739E+02</pdfrwt>
<pdfrwt beam="2">  1       -2 0.38609513E-03 0.41909739E+02</pdfrwt>
<totfact> 0.10918980E+06</totfact>
</mgrwt>
</event>
<event>
 4    1  0.4834411E-002  0.9653105E+02  0.7818608E-02  0.1287765E+00
         -2   -1    0    0  501    0 -0.00000000000E+00  0.00000000000E+00  0.15844247164E+01  0.15844267684E+01  0.25500000000E-02 0. -1.
          2   -1    0    0    0  501  0.00000000000E+00 -0.00000000000E+00 -0.14702872746E+04  0.14702872746E+04  0.25500000000E-02 0. -1.
          2    1    1    2    0  502  0.41499908696E+02 -0.85792206491E+01 -0.38209587411E+03  0.38443868493E+03  0.25500000000E-02 0. -1.
         -2    1    1    2  502    0 -0.41499908696E+02  0.85792206491E+01 -0.10866069757E+04  0.10874330164E+04  0.25500000000E-02 0. -1.
<mgrwt>
<rscale>  0 0.96531052E+02</rscale>
<asrwt>0</asrwt>
<pdfrwt beam="2">  1        2 0.22619695E+00 0.96531052E+02</pdfrwt>
<pdfrwt beam="1">  1       -2 0.24375898E-03 0.96531052E+02</pdfrwt>
<totfact> 0.20443119E+05</totfact>
</mgrwt>
</event>
<event>
 4    1  0.4834411E-002  0.7878525E+02  0.7818608E-02  0.1332534E+00
          2   -1    0    0    0  501  0.00000000000E+00  0.00000000000E+00  0.21474805855E+02  0.21474806006E+02  0.25500000000E-02 0. -1.
         -2   -1    0    0  501    0 -0.00000000000E+00 -0.00000000000E+00 -0.72260437791E+02  0.72260437836E+02  0.25500000000E-02 0. -1.
          2    1    1    2    0  502  0.21340446880E+02 -0.32372788821E+02 -0.17118512693E+02  0.42384615280E+02  0.25500000000E-02 0. -1.
         -2    1    1    2  502    0 -0.21340446880E+02  0.32372788821E+02 -0.33667119242E+02  0.51350628562E+02  0.25500000000E-02 0. -1.
<mgrwt>
<rscale>  0 0.78785249E+02</rscale>
<asrwt>0</asrwt>
<pdfrwt beam="1">  1        2 0.33038163E-02 0.78785249E+02</pdfrwt>
<pdfrwt beam="2">  1       -2 0.11116990E-01 0.78785249E+02</pdfrwt>
<totfact> 0.12505400E+05</totfact>
</mgrwt>
</event>
<event>
 4    1  0.4834411E-002  0.4751336E+02  0.7818608E-02  0.1459235E+00
         -2   -1    0    0  501    0 -0.00000000000E+00  0.00000000000E+00  0.13707674547E+01  0.13707698266E+01  0.25500000000E-02 0.  1.
          2   -1    0    0    0  501  0.00000000000E+00 -0.00000000000E+00 -0.41172517428E+03  0.41172517429E+03  0.25500000000E-02 0.  1.
          2    1    1    2    0  502  0.13822426560E+02 -0.17870265575E+02 -0.14130266229E+03  0.14309733836E+03  0.25500000000E-02 0.  1.
         -2    1    1    2  502    0 -0.13822426560E+02  0.17870265575E+02 -0.26905174453E+03  0.26999860576E+03  0.25500000000E-02 0.  1.
<mgrwt>
<rscale>  0 0.47513365E+02</rscale>
<asrwt>0</asrwt>
<pdfrwt beam="2">  1        2 0.63342236E-01 0.47513365E+02</pdfrwt>
<pdfrwt beam="1">  1       -2 0.21088781E-03 0.47513365E+02</pdfrwt>
<totfact> 0.10700484E+06</totfact>
</mgrwt>
</event>
<event>
 4    1  0.4834411E-002  0.6601264E+02  0.7818608E-02  0.1374202E+00
          2   -1    0    0    0  501  0.00000000000E+00  0.00000000000E+00  0.17943354415E+02  0.17943354597E+02  0.25500000000E-02 0. -1.
         -2   -1    0    0  501    0 -0.00000000000E+00 -0.00000000000E+00 -0.60714244179E+02  0.60714244232E+02  0.25500000000E-02 0. -1.
          2    1    1    2    0  502  0.41554686808E+01 -0.21999275037E+02  0.75126448885E+01  0.23615161694E+02  0.25500000000E-02 0.  1.
         -2    1    1    2  502    0 -0.41554686808E+01  0.21999275037E+02 -0.50283534652E+02  0.55042437134E+02  0.25500000000E-02 0.  1.
<mgrwt>
<rscale>  0 0.66012642E+02</rscale>
<asrwt>0</asrwt>
<pdfrwt beam="1">  1        2 0.27605161E-02 0.66012642E+02</pdfrwt>
<pdfrwt beam="2">  1       -2 0.93406529E-02 0.66012642E+02</pdfrwt>
<totfact> 0.20055416E+05</totfact>
</mgrwt>
</event>
<event>
 4    1  0.4834411E-002  0.4558617E+02  0.7818608E-02  0.1470715E+00
          2   -1    0    0    0  501  0.00000000000E+00  0.00000000000E+00  0.26250062155E+02  0.26250062279E+02  0.25500000000E-02 0.  1.
         -2   -1    0    0  501    0 -0.00000000000E+00 -0.00000000000E+00 -0.19791368841E+02  0.19791369005E+02  0.25500000000E-02 0.  1.
          2    1    1    2    0  502 -0.39434298263E+01 -0.21737807273E+02  0.88926411704E+01  0.23815162760E+02  0.25500000000E-02 0. -1.
         -2    1    1    2  502    0  0.39434298263E+01  0.21737807273E+02 -0.24339478564E+01  0.22226268524E+02  0.25500000000E-02 0. -1.
<mgrwt>
<rscale>  0 0.45586168E+02</rscale>
<asrwt>0</asrwt>
<pdfrwt beam="1">  1        2 0.40384711E-02 0.45586168E+02</pdfrwt>
<pdfrwt beam="2">  1       -2 0.30448260E-02 0.45586168E+02</pdfrwt>
<totfact> 0.58491005E+05</totfact>
</mgrwt>
</event>
<event>
 4    1  0.4834411E-002  0.9418990E+02  0.7818608E-02  0.1293011E+00
         -2   -1    0    0  501    0 -0.00000000000E+00  0.00000000000E+00  0.21505191888E+01  0.21505207007E+01  0.25500000000E-02 0.  1.
          2   -1    0    0    0  501  0.00000000000E+00 -0.00000000000E+00 -0.10313479218E+04  0.10313479218E+04  0.25500000000E-02 0.  1.
          2    1    1    2    0  502  0.26295032063E+02  0.37813486245E+02 -0.40672960745E+03  0.40932903884E+03  0.25500000000E-02 0.  1.
         -2    1    1    2  502    0 -0.26295032063E+02 -0.37813486245E+02 -0.62246779516E+03  0.62416940366E+03  0.25500000000E-02 0.  1.
<mgrwt>
<rscale>  0 0.94189899E+02</rscale>
<asrwt>0</asrwt>
<pdfrwt beam="2">  1        2 0.15866852E+00 0.94189899E+02</pdfrwt>
<pdfrwt beam="1">  1       -2 0.33085005E-03 0.94189899E+02</pdfrwt>
<totfact> 0.22969994E+05</totfact>
</mgrwt>
</event>
<event>
 4    1  0.4834411E-002  0.6273835E+02  0.7818608E-02  0.1386687E+00
          2   -1    0    0    0  501  0.00000000000E+00  0.00000000000E+00  0.28114492340E+02  0.28114492456E+02  0.25500000000E-02 0.  1.
         -2   -1    0    0  501    0 -0.00000000000E+00 -0.00000000000E+00 -0.35000641178E+02  0.35000641271E+02  0.25500000000E-02 0.  1.
          2    1    1    2    0  502  0.45603480838E+01 -0.30432757044E+02 -0.95686309042E+01  0.32225893003E+02  0.25500000000E-02 0. -1.
         -2    1    1    2  502    0 -0.45603480838E+01  0.30432757044E+02  0.26824820670E+01  0.30889240724E+02  0.25500000000E-02 0. -1.
<mgrwt>
<rscale>  0 0.62738354E+02</rscale>
<asrwt>0</asrwt>
<pdfrwt beam="1">  1        2 0.43253065E-02 0.62738354E+02</pdfrwt>
<pdfrwt beam="2">  1       -2 0.53847141E-02 0.62738354E+02</pdfrwt>
<totfact> 0.25283723E+05</totfact>
</mgrwt>
</event>
<event>
 4    1  0.4834411E-002  0.1175447E+03  0.7818608E-02  0.1247203E+00
         -2   -1    0    0  501    0 -0.00000000000E+00  0.00000000000E+00  0.51285322225E+01  0.51285328565E+01  0.25500000000E-02 0. -1.
          2   -1    0    0    0  501  0.00000000000E+00 -0.00000000000E+00 -0.67352373629E+03  0.67352373630E+03  0.25500000000E-02 0. -1.
          2    1    1    2    0  502 -0.42634448922E+02 -0.19307631463E+02 -0.12895496536E+03  0.13718550931E+03  0.25500000000E-02 0. -1.
         -2    1    1    2  502    0  0.42634448922E+02  0.19307631463E+02 -0.53944023871E+03  0.54146675985E+03  0.25500000000E-02 0. -1.
<mgrwt>
<rscale>  0 0.11754469E+03</rscale>
<asrwt>0</asrwt>
<pdfrwt beam="2">  1        2 0.10361897E+00 0.11754469E+03</pdfrwt>
<pdfrwt beam="1">  1       -2 0.78900554E-03 0.11754469E+03</pdfrwt>
<totfact> 0.11916046E+05</totfact>
</mgrwt>
</event>
<event>
 4    1  0.4834411E-002  0.4268773E+02  0.7818608E-02  0.1489315E+00
         -2   -1    0    0  501    0 -0.00000000000E+00  0.00000000000E+00  0.18330549705E+01  0.18330567442E+01  0.25500000000E-02 0.  1.
          2   -1    0    0    0  501  0.00000000000E+00 -0.00000000000E+00 -0.24852525341E+03  0.24852525342E+03  0.25500000000E-02 0.  1.
          2    1    1    2    0  502 -0.20203882548E+02 -0.53184962506E+01 -0.14896251995E+03  0.15042046280E+03  0.25500000000E-02 0. -1.
         -2    1    1    2  502    0  0.20203882548E+02  0.53184962506E+01 -0.97729678488E+02  0.99937847367E+02  0.25500000000E-02 0. -1.
<mgrwt>
<rscale>  0 0.42687735E+02</rscale>
<asrwt>0</asrwt>
<pdfrwt beam="2">  1        2 0.38234628E-01 0.42687735E+02</pdfrwt>
<pdfrwt beam="1">  1       -2 0.28200879E-03 0.42687735E+02</pdfrwt>
<totfact> 0.11711793E+06</totfact>
</mgrwt>
</event>
<event>
 4    1  0.4834411E-002  0.4861691E+02  0.7818608E-02  0.1452948E+00
          2   -1    0    0    0  501  0.00000000000E+00  0.00000000000E+00  0.94527558604E+02  0.94527558639E+02  0.25500000000E-02 0. -1.
         -2   -1    0    0  501    0 -0.00000000000E+00 -0.00000000000E+00 -0.62510979321E+01  0.62510984522E+01  0.25500000000E-02 0. -1.
          2    1    1    2    0  502  0.21358406579E+02  0.68979902849E+00  0.20120711783E+02  0.29351327116E+02  0.25500000000E-02 0.  1.
         -2    1    1    2  502    0 -0.21358406579E+02 -0.68979902849E+00  0.68155748889E+02  0.71427329975E+02  0.25500000000E-02 0.  1.
<mgrwt>
<rscale>  0 0.48616913E+02</rscale>
<asrwt>0</asrwt>
<pdfrwt beam="1">  1        2 0.14542701E-01 0.48616913E+02</pdfrwt>
<pdfrwt beam="2">  1       -2 0.96170747E-03 0.48616913E+02</pdfrwt>
<totfact> 0.63354242E+05</totfact>
</mgrwt>
</event>
<event>
 4    1  0.4834411E-002  0.7777325E+02  0.7818608E-02  0.1335492E+00
         -2   -1    0    0  501    0 -0.00000000000E+00  0.00000000000E+00  0.14278397555E+02  0.14278397783E+02  0.25500000000E-02 0.  1.
          2   -1    0    0    0  501  0.00000000000E+00 -0.00000000000E+00 -0.10590610437E+03  0.10590610440E+03  0.25500000000E-02 0.  1.
          2    1    1    2    0  502 -0.33822340743E+02 -0.19188594770E+02 -0.45614944842E+02  0.59940604786E+02  0.25500000000E-02 0. -1.
         -2    1    1    2  502    0  0.33822340743E+02  0.19188594770E+02 -0.46012761969E+02  0.60243897393E+02  0.25500000000E-02 0. -1.
<mgrwt>
<rscale>  0 0.77773247E+02</rscale>
<asrwt>0</asrwt>
<pdfrwt beam="2">  1        2 0.16293246E-01 0.77773247E+02</pdfrwt>
<pdfrwt beam="1">  1       -2 0.21966766E-02 0.77773247E+02</pdfrwt>
<totfact> 0.19225281E+05</totfact>
</mgrwt>
</event>
<event>
 4    1  0.4834411E-002  0.5561900E+02  0.7818608E-02  0.1417194E+00
          2   -1    0    0    0  501  0.00000000000E+00  0.00000000000E+00  0.16975095223E+03  0.16975095225E+03  0.25500000000E-02 0.  1.
         -2   -1    0    0  501    0 -0.00000000000E+00 -0.00000000000E+00 -0.45558990343E+01  0.45558997480E+01  0.25500000000E-02 0.  1.
          2    1    1    2    0  502  0.73396910044E+01 -0.23989171147E+02  0.12020706129E+03  0.12279694209E+03  0.25500000000E-02 0.  1.
         -2    1    1    2  502    0 -0.73396910044E+01  0.23989171147E+02  0.44987991903E+02  0.51509909904E+02  0.25500000000E-02 0.  1.
<mgrwt>
<rscale>  0 0.55618999E+02</rscale>
<asrwt>0</asrwt>
<pdfrwt beam="1">  1        2 0.26115534E-01 0.55618999E+02</pdfrwt>
<pdfrwt beam="2">  1       -2 0.70090751E-03 0.55618999E+02</pdfrwt>
<totfact> 0.53326263E+05</totfact>
</mgrwt>
</event>
<event>
 4    1  0.4834411E-002  0.5521691E+02  0.7818608E-02  0.1419076E+00
          2   -1    0    0    0  501  0.00000000000E+00  0.00000000000E+00  0.12393336704E+04  0.12393336704E+04  0.25500000000E-02 0.  1.
         -2   -1    0    0  501    0 -0.00000000000E+00 -0.00000000000E+00 -0.61502694614E+00  0.61503223247E+00  0.25500000000E-02 0.  1.
          2    1    1    2    0  502 -0.56236384270E+01  0.25326839185E+02  0.40732847666E+03  0.40815384600E+03  0.25500000000E-02 0. -1.
         -2    1    1    2  502    0  0.56236384270E+01 -0.25326839185E+02  0.83139016680E+03  0.83179485665E+03  0.25500000000E-02 0. -1.
<mgrwt>
<rscale>  0 0.55216913E+02</rscale>
<asrwt>0</asrwt>
<pdfrwt beam="1">  1        2 0.19066436E+00 0.55216913E+02</pdfrwt>
<pdfrwt beam="2">  1       -2 0.94621110E-04 0.55216913E+02</pdfrwt>
<totfact> 0.89699577E+05</totfact>
</mgrwt>
</event>
<event>
 4    1  0.4834411E-002  0.4722987E+02  0.7818608E-02  0.1460882E+00
          2   -1    0    0    0  501  0.00000000000E+00  0.00000000000E+00  0.10925453947E+04  0.10925453947E+04  0.25500000000E-02 0. -1.
         -2   -1    0    0  501    0 -0.00000000000E+00 -0.00000000000E+00 -0.51042429420E+00  0.51043066386E+00  0.25500000000E-02 0. -1.
          2    1    1    2    0  502 -0.21146394328E+02 -0.78779251214E+01  0.38495349130E+03  0.38561434383E+03  0.25500000000E-02 0. -1.
         -2    1    1    2  502    0  0.21146394328E+02  0.78779251214E+01  0.70708147905E+03  0.70744148148E+03  0.25500000000E-02 0. -1.
<mgrwt>
<rscale>  0 0.47229872E+02</rscale>
<asrwt>0</asrwt>
<pdfrwt beam="1">  1        2 0.16808161E+00 0.47229872E+02</pdfrwt>
<pdfrwt beam="2">  1       -2 0.78528379E-04 0.47229872E+02</pdfrwt>
<totfact> 0.13334568E+06</totfact>
</mgrwt>
</event>
<event>
 4    1  0.4834411E-002  0.7938645E+02  0.7818608E-02  0.1330802E+00
         -2   -1    0    0  501    0 -0.00000000000E+00  0.00000000000E+00  0.14905282235E+01  0.14905304048E+01  0.25500000000E-02 0. -1.
          2   -1    0    0    0  501  0.00000000000E+00 -0.00000000000E+00 -0.10570421258E+04  0.10570421258E+04  0.25500000000E-02 0. -1.
          2    1    1    2    0  502  0.17146647275E+02 -0.35737084427E+02 -0.49978868000E+03  0.50135802714E+03  0.25500000000E-02 0. -1.
         -2    1    1    2  502    0 -0.17146647275E+02  0.35737084427E+02 -0.55576291761E+03  0.55717462910E+03  0.25500000000E-02 0. -1.
<mgrwt>
<rscale>  0 0.79386454E+02</rscale>
<asrwt>0</asrwt>
<pdfrwt beam="2">  1        2 0.16262127E+00 0.79386454E+02</pdfrwt>
<pdfrwt beam="1">  1       -2 0.22931305E-03 0.79386454E+02</pdfrwt>
<totfact> 0.35954313E+05</totfact>
</mgrwt>
</event>
<event>
 4    1  0.4834411E-002  0.6800349E+02  0.7818608E-02  0.1367017E+00
          2   -1    0    0    0  501  0.00000000000E+00  0.00000000000E+00  0.45261907104E+03  0.45261907105E+03  0.25500000000E-02 0. -1.
         -2   -1    0    0  501    0 -0.00000000000E+00 -0.00000000000E+00 -0.25542853064E+01  0.25542865793E+01  0.25500000000E-02 0. -1.
          2    1    1    2    0  502 -0.30187117297E+02 -0.12793674301E+02  0.16472565572E+03  0.16795678555E+03  0.25500000000E-02 0.  1.
         -2    1    1    2  502    0  0.30187117297E+02  0.12793674301E+02  0.28533913001E+03  0.28721657208E+03  0.25500000000E-02 0.  1.
<mgrwt>
<rscale>  0 0.68003486E+02</rscale>
<asrwt>0</asrwt>
<pdfrwt beam="1">  1        2 0.69633710E-01 0.68003486E+02</pdfrwt>
<pdfrwt beam="2">  1       -2 0.39296703E-03 0.68003486E+02</pdfrwt>
<totfact> 0.44796003E+05</totfact>
</mgrwt>
</event>
<event>
 4    1  0.4834411E-002  0.4633161E+02  0.7818608E-02  0.1466196E+00
         -2   -1    0    0  501    0 -0.00000000000E+00  0.00000000000E+00  0.25592603464E+00  0.25593873819E+00  0.25500000000E-02 0.  1.
          2   -1    0    0    0  501  0.00000000000E+00 -0.00000000000E+00 -0.20968601601E+04  0.20968601601E+04  0.25500000000E-02 0.  1.
          2    1    1    2    0  502 -0.20505828040E+02 -0.97594811912E+01 -0.84128567814E+03  0.84159213916E+03  0.25500000000E-02 0.  1.
         -2    1    1    2  502    0  0.20505828040E+02  0.97594811912E+01 -0.12553185559E+04  0.12555239597E+04  0.25500000000E-02 0.  1.
<mgrwt>
<rscale>  0 0.46331606E+02</rscale>
<asrwt>0</asrwt>
<pdfrwt beam="2">  1        2 0.32258011E+00 0.46331606E+02</pdfrwt>
<pdfrwt beam="1">  1       -2 0.39375893E-04 0.46331606E+02</pdfrwt>
<totfact> 0.10635816E+06</totfact>
</mgrwt>
</event>
<event>
 4    1  0.4834411E-002  0.4292421E+02  0.7818608E-02  0.1487733E+00
         -2   -1    0    0  501    0 -0.00000000000E+00  0.00000000000E+00  0.31271157555E+00  0.31272197234E+00  0.25500000000E-02 0.  1.
          2   -1    0    0    0  501  0.00000000000E+00 -0.00000000000E+00 -0.14729682260E+04  0.14729682260E+04  0.25500000000E-02 0.  1.
          2    1    1    2    0  502  0.14118018481E+02  0.16162550678E+02 -0.74575112821E+03  0.74605984460E+03  0.25500000000E-02 0. -1.
         -2    1    1    2  502    0 -0.14118018481E+02 -0.16162550678E+02 -0.72690438618E+03  0.72722110334E+03  0.25500000000E-02 0. -1.
<mgrwt>
<rscale>  0 0.42924206E+02</rscale>
<asrwt>0</asrwt>
<pdfrwt beam="2">  1        2 0.22660494E+00 0.42924206E+02</pdfrwt>
<pdfrwt beam="1">  1       -2 0.48111453E-04 0.42924206E+02</pdfrwt>
<totfact> 0.16044701E+06</totfact>
</mgrwt>
</event>
<event>
 4    1  0.4834411E-002  0.4297573E+02  0.7818608E-02  0.1487389E+00
         -2   -1    0    0  501    0 -0.00000000000E+00  0.00000000000E+00  0.67620347228E+01  0.67620352036E+01  0.25500000000E-02 0. -1.
          2   -1    0    0    0  501  0.00000000000E+00 -0.00000000000E+00 -0.68282457651E+02  0.68282457699E+02  0.25500000000E-02 0. -1.
          2    1    1    2    0  502  0.17757827898E+02  0.12063230565E+02 -0.32385571812E+02  0.38854694072E+02  0.25500000000E-02 0.  1.
         -2    1    1    2  502    0 -0.17757827898E+02 -0.12063230565E+02 -0.29134851116E+02  0.36189798831E+02  0.25500000000E-02 0.  1.
<mgrwt>
<rscale>  0 0.42975731E+02</rscale>
<asrwt>0</asrwt>
<pdfrwt beam="2">  1        2 0.10504993E-01 0.42975731E+02</pdfrwt>
<pdfrwt beam="1">  1       -2 0.10403131E-02 0.42975731E+02</pdfrwt>
<totfact> 0.80125933E+05</totfact>
</mgrwt>
</event>
<event>
 4    1  0.4834411E-002  0.5028949E+02  0.7818608E-02  0.1443786E+00
          2   -1    0    0    0  501  0.00000000000E+00  0.00000000000E+00  0.19733976170E+02  0.19733976335E+02  0.25500000000E-02 0. -1.
         -2   -1    0    0  501    0 -0.00000000000E+00 -0.00000000000E+00 -0.32039066202E+02  0.32039066304E+02  0.25500000000E-02 0. -1.
          2    1    1    2    0  502 -0.11901530932E+02  0.22106343965E+02 -0.75795405821E+01  0.26225680620E+02  0.25500000000E-02 0.  1.
         -2    1    1    2  502    0  0.11901530932E+02 -0.22106343965E+02 -0.47255494502E+01  0.25547362019E+02  0.25500000000E-02 0.  1.
<mgrwt>
<rscale>  0 0.50289489E+02</rscale>
<asrwt>0</asrwt>
<pdfrwt beam="1">  1        2 0.30359964E-02 0.50289489E+02</pdfrwt>
<pdfrwt beam="2">  1       -2 0.49290871E-02 0.50289489E+02</pdfrwt>
<totfact> 0.43269555E+05</totfact>
</mgrwt>
</event>
<event>
 4    1  0.4834411E-002  0.9620536E+02  0.7818608E-02  0.1288484E+00
          2   -1    0    0    0  501  0.00000000000E+00  0.00000000000E+00  0.22356173237E+04  0.22356173237E+04  0.25500000000E-02 0.  1.
         -2   -1    0    0  501    0 -0.00000000000E+00 -0.00000000000E+00 -0.10350001131E+01  0.10350032544E+01  0.25500000000E-02 0.  1.
          2    1    1    2    0  502 -0.19893102066E+02  0.36595352012E+02  0.16766695033E+04  0.16771868049E+04  0.25500000000E-02 0.  1.
         -2    1    1    2  502    0  0.19893102066E+02 -0.36595352012E+02  0.55791282028E+03  0.55946552203E+03  0.25500000000E-02 0.  1.
<mgrwt>
<rscale>  0 0.96205357E+02</rscale>
<asrwt>0</asrwt>
<pdfrwt beam="1">  1        2 0.34393642E+00 0.96205357E+02</pdfrwt>
<pdfrwt beam="2">  1       -2 0.15923321E-03 0.96205357E+02</pdfrwt>
<totfact> 0.15127574E+05</totfact>
</mgrwt>
</event>
<event>
 4    1  0.4834411E-002  0.5439060E+02  0.7818608E-02  0.1423003E+00
          2   -1    0    0    0  501  0.00000000000E+00  0.00000000000E+00  0.14520853899E+02  0.14520854123E+02  0.25500000000E-02 0. -1.
         -2   -1    0    0  501    0 -0.00000000000E+00 -0.00000000000E+00 -0.50932559834E+02  0.50932559898E+02  0.25500000000E-02 0. -1.
          2    1    1    2    0  502 -0.33156964596E+01 -0.22051402019E+02 -0.36938905985E+02  0.43147896309E+02  0.25500000000E-02 0. -1.
         -2    1    1    2  502    0  0.33156964596E+01  0.22051402019E+02  0.52720004954E+00  0.22305517712E+02  0.25500000000E-02 0. -1.
<mgrwt>
<rscale>  0 0.54390597E+02</rscale>
<asrwt>0</asrwt>
<pdfrwt beam="1">  1        2 0.22339776E-02 0.54390597E+02</pdfrwt>
<pdfrwt beam="2">  1       -2 0.78357784E-02 0.54390597E+02</pdfrwt>
<totfact> 0.33190253E+05</totfact>
</mgrwt>
</event>
<event>
 4    1  0.4834411E-002  0.5133388E+02  0.7818608E-02  0.1438277E+00
          2   -1    0    0    0  501  0.00000000000E+00  0.00000000000E+00  0.96903986271E+03  0.96903986272E+03  0.25500000000E-02 0. -1.
         -2   -1    0    0  501    0 -0.00000000000E+00 -0.00000000000E+00 -0.67983740754E+00  0.67984218992E+00  0.25500000000E-02 0. -1.
          2    1    1    2    0  502 -0.67674121078E+01  0.22204480225E+02  0.27728435107E+03  0.27825428687E+03  0.25500000000E-02 0.  1.
         -2    1    1    2  502    0  0.67674121078E+01 -0.22204480225E+02  0.69107567424E+03  0.69146541804E+03  0.25500000000E-02 0.  1.
<mgrwt>
<rscale>  0 0.51333882E+02</rscale>
<asrwt>0</asrwt>
<pdfrwt beam="1">  1        2 0.14908338E+00 0.51333882E+02</pdfrwt>
<pdfrwt beam="2">  1       -2 0.10459051E-03 0.51333882E+02</pdfrwt>
<totfact> 0.10830164E+06</totfact>
</mgrwt>
</event>
<event>
 4    1  0.4834411E-002  0.6963845E+02  0.7818608E-02  0.1361327E+00
          2   -1    0    0    0  501  0.00000000000E+00  0.00000000000E+00  0.53748594188E+02  0.53748594249E+02  0.25500000000E-02 0.  1.
         -2   -1    0    0  501    0 -0.00000000000E+00 -0.00000000000E+00 -0.22556467453E+02  0.22556467598E+02  0.25500000000E-02 0.  1.
          2    1    1    2    0  502  0.14626069125E+02  0.16797073512E+02  0.44922292809E+02  0.50140562166E+02  0.25500000000E-02 0.  1.
         -2    1    1    2  502    0 -0.14626069125E+02 -0.16797073512E+02 -0.13730166074E+02  0.26164499680E+02  0.25500000000E-02 0.  1.
<mgrwt>
<rscale>  0 0.69638450E+02</rscale>
<asrwt>0</asrwt>
<pdfrwt beam="1">  1        2 0.82690145E-02 0.69638450E+02</pdfrwt>
<pdfrwt beam="2">  1       -2 0.34702258E-02 0.69638450E+02</pdfrwt>
<totfact> 0.21727319E+05</totfact>
</mgrwt>
</event>
<event>
 4    1  0.4834411E-002  0.8070069E+02  0.7818608E-02  0.1327075E+00
          2   -1    0    0    0  501  0.00000000000E+00  0.00000000000E+00  0.74487634952E+03  0.74487634952E+03  0.25500000000E-02 0.  1.
         -2   -1    0    0  501    0 -0.00000000000E+00 -0.00000000000E+00 -0.21857986085E+01  0.21858000959E+01  0.25500000000E-02 0.  1.
          2    1    1    2    0  502  0.41108900978E+01 -0.26224937087E+02  0.65266408437E+03  0.65320368476E+03  0.25500000000E-02 0. -1.
         -2    1    1    2  502    0 -0.41108900978E+01  0.26224937087E+02  0.90026466537E+02  0.93858464862E+02  0.25500000000E-02 0. -1.
<mgrwt>
<rscale>  0 0.80700688E+02</rscale>
<asrwt>0</asrwt>
<pdfrwt beam="1">  1        2 0.11459648E+00 0.80700688E+02</pdfrwt>
<pdfrwt beam="2">  1       -2 0.33627648E-03 0.80700688E+02</pdfrwt>
<totfact> 0.33101216E+05</totfact>
</mgrwt>
</event>
<event>
 4    1  0.4834411E-002  0.4561073E+02  0.7818608E-02  0.1470565E+00
          2   -1    0    0    0  501  0.00000000000E+00  0.00000000000E+00  0.77525526634E+03  0.77525526634E+03  0.25500000000E-02 0. -1.
         -2   -1    0    0  501    0 -0.00000000000E+00 -0.00000000000E+00 -0.67085364862E+00  0.67085849504E+00  0.25500000000E-02 0. -1.
          2    1    1    2    0  502  0.56186575862E+01  0.20955606158E+02  0.26775037756E+03  0.26862794239E+03  0.25500000000E-02 0. -1.
         -2    1    1    2  502    0 -0.56186575862E+01 -0.20955606158E+02  0.50683403513E+03  0.50729818245E+03  0.25500000000E-02 0. -1.
<mgrwt>
<rscale>  0 0.45610731E+02</rscale>
<asrwt>0</asrwt>
<pdfrwt beam="1">  1        2 0.11927002E+00 0.45610731E+02</pdfrwt>
<pdfrwt beam="2">  1       -2 0.10320864E-03 0.45610731E+02</pdfrwt>
<totfact> 0.14076179E+06</totfact>
</mgrwt>
</event>
